LAMMPS (29 Sep 2016)
OMP_NUM_THREADS environment is not set. Defaulting to 1 thread. (../comm.cpp:90)
  using 1 OpenMP thread(s) per MPI task
# =====  varables  ===== #

#variable	segment	string	../BBB

# ===== force field ===== #

units		real
neigh_modify	delay 10 every 1

atom_style	full
bond_style	hybrid morse harmonic
angle_style	charmm
dihedral_style	charmm
improper_style	harmonic

pair_style	lj/charmm/coul/long 10.0 12.0
pair_modify	mix arithmetic
kspace_style	pppm 1e-5
special_bonds	charmm

# ===== system ===== #

#read_data       ../data_files/gluprot8_-6_0.data
read_data       gluprot8_-6_0.data
  orthogonal box = (-12.1247 -12.1247 -12.1247) to (12.1247 12.1247 12.1247)
  1 by 1 by 1 MPI processor grid
  reading atoms ...
  1429 atoms
  scanning bonds ...
  4 = max bonds/atom
  scanning angles ...
  6 = max angles/atom
  scanning dihedrals ...
  15 = max dihedrals/atom
  scanning impropers ...
  1 = max impropers/atom
  reading bonds ...
  961 bonds
  reading angles ...
  514 angles
  reading dihedrals ...
  64 dihedrals
  reading impropers ...
  5 impropers
  4 = max # of 1-2 neighbors
  7 = max # of 1-3 neighbors
  14 = max # of 1-4 neighbors
  18 = max # of special neighbors
include	        ../input/bond-glue
bond_coeff       1   harmonic       250            1.49     # C    CT1
bond_coeff       2   harmonic       250            1.49     # C    CT3
bond_coeff       3   harmonic       370           1.345     # C    NH1
bond_coeff       4   harmonic       620            1.23     # C    O
bond_coeff       5   harmonic       200           1.522     # CC   CT2 (same as CD CT2), GLUE_BOND_CC_CT2
bond_coeff       6   harmonic       525            1.26     # CC   OC  GLUE_BOND_CC_OC
bond_coeff       7   harmonic     222.5           1.538     # CT1  CT2A
bond_coeff       8   harmonic       330            1.08     # CT1  HB1
bond_coeff       9   harmonic       320            1.43     # CT1  NH1
bond_coeff      10   harmonic     222.5            1.53     # CT2  CT2A
bond_coeff      11   harmonic       309           1.111     # CT2  HA2
bond_coeff      12   harmonic       309           1.111     # CT2A HA2
bond_coeff      13   harmonic       322           1.111     # CT3  HA3
bond_coeff      14   harmonic       320            1.43     # CT3  NH1
bond_coeff      15   harmonic       440           0.997     # H    NH1
bond_coeff      16   harmonic   529.581           1.012     # HT   OT,  OW-HW
bond_coeff      17   morse       79.086356       2.083387   0.98   # HTH  OTH; EVB 3.2 from Steve, OH-HO
bond_coeff      18   harmonic       750           1.22      # CD   CD   OB,  GLUP_BOND_CD_OB
bond_coeff      19   harmonic       230           1.4       # CCD   OH1, GLUP_BOND_CD_OH1
bond_coeff      20   morse      143.003000        1.80000   0.975  # H    OH1, GLUP_BOND_OH1_H (formerly harmonic, 545       0.96) (Yxg CHARMM22)
bond_coeff      21   harmonic       200           1.522     # CD   CT2 (same as CC CT2), GLUP_BOND_CD_CT2

pair_coeff  2   2    0.155425300  3.165492   0.155425300  3.165492 # OT
pair_coeff  1   1    0.000000000  0.000000   0.000000000  0.000000 # HT
pair_coeff  3   3    0.098609686  3.118508   0.098609686  3.118508 # OTH
pair_coeff  1   3    3.0          1.6        3.0          1.6      # OTH HT
pair_coeff  4   4    0.000040458  0.000000   0.000040458  0.000000 # HTH
pair_coeff  5   5    0.046       0.4000135   0.046       0.4000135 # H
pair_coeff  6   6    0.022        2.351973   0.022        2.351973 # HB1
pair_coeff  7   7    0.034        2.387609   0.034        2.387609 # HA2
pair_coeff  8   8    0.024        2.387609   0.024        2.387609 # HA3
pair_coeff  9   9     0.11        3.563595    0.11        3.563595 # C
pair_coeff 10  10    0.032        3.563595    0.01        3.385415 # CT1
pair_coeff 11  11    0.056        3.581413    0.01        3.385415 # CT2
pair_coeff 12  12    0.056        3.581413    0.01        3.385415 # CT2A
pair_coeff 13  13    0.078        3.634867    0.01        3.385415 # CT3
pair_coeff 14  14     0.07        3.563595    0.07        3.563595 # CC
pair_coeff 15  15      0.2        3.296325     0.2        2.761786 # NH1
pair_coeff 16  16     0.12        3.029056    0.12        2.494516 # O
pair_coeff 17  17     0.12        3.029056    0.12        3.029056 # OC
pair_coeff 18  18     0.12        3.029056    0.12        2.494516 # OB
pair_coeff 19  19   0.1521        3.153781  0.1521        3.153781 # OH1
pair_coeff 20  20     0.07        3.563595    0.07        3.563595 # CD


# add pair coeff always smaller number first (2, 3)
# # these are in the in same file as the bond_coeffs

# ===== fix modules ===== #
#

# fix	        evb all evb ../input/glu.cfg-glue_maupin_gauss gluprot8_-6no_evb.evb ../input/glue_revised.top
fix             2 all nvt temp 300.0 300.0 100.0
#fix            2 all nve
# fix             3 all momentum 1 linear 1 1 1 angular
# fix             plumed all plumed plumedfile plumed.dat outfile gluprot8_-6no_evb.plumed

thermo          1000
thermo_style    multi
#timestep        1

# ===== job control ===== #

#evb_checkout  chk-1.inp
#restart         10 gluprot8_-6no_evb.restart1 gluprot8_-6no_evb.restart2
dump            1 all custom 1 gluprot8_-6no_evb.dump id mol type q x y z
dump_modify     1 sort id flush yes

reset_timestep 0

run 0
PPPM initialization ...
WARNING: Using 12-bit tables for long-range coulomb (../kspace.cpp:319)
  G vector (1/distance) = 0.255648
  grid = 18 18 18
  stencil order = 5
  estimated absolute RMS force accuracy = 0.00232973
  estimated relative force accuracy = 7.01591e-06
  using double precision FFTs
  3d grid and FFT values/proc = 15625 5832
Neighbor list info ...
  1 neighbor list requests
  update every 1 steps, delay 10 steps, check yes
  max neighbors/atom: 2000, page size: 100000
  master list distance cutoff = 14
  ghost atom cutoff = 14
  binsize = 7 -> bins = 4 4 4
WARNING: Inconsistent image flags (../domain.cpp:785)
Memory usage per processor = 17.1651 Mbytes
---------------- Step        0 ----- CPU =      0.0000 (sec) ----------------
TotEng   =     -4695.3981 KinEng   =         0.0000 Temp     =         0.0000 
PotEng   =     -4695.3981 E_bond   =       358.4135 E_angle  =       366.7825 
E_dihed  =        12.5810 E_impro  =         0.9351 E_vdwl   =      1147.6204 
E_coul   =     16115.0603 E_long   =    -22696.7908 Press    =     -1326.6020 
Loop time of 5.96046e-06 on 1 procs for 0 steps with 1429 atoms

0.0% CPU use with 1 MPI tasks x 1 OpenMP threads

MPI task timing breakdown:
Section |  min time  |  avg time  |  max time  |%varavg| %total
---------------------------------------------------------------
Pair    | 0          | 0          | 0          |   0.0 |  0.00
Bond    | 0          | 0          | 0          |   0.0 |  0.00
Kspace  | 0          | 0          | 0          |   0.0 |  0.00
Neigh   | 0          | 0          | 0          |   0.0 |  0.00
Comm    | 0          | 0          | 0          |   0.0 |  0.00
Output  | 0          | 0          | 0          |   0.0 |  0.00
Modify  | 0          | 0          | 0          |   0.0 |  0.00
Other   |            | 5.96e-06   |            |       |100.00

Nlocal:    1429 ave 1429 max 1429 min
Histogram: 1 0 0 0 0 0 0 0 0 0
Nghost:    12948 ave 12948 max 12948 min
Histogram: 1 0 0 0 0 0 0 0 0 0
Neighs:    822461 ave 822461 max 822461 min
Histogram: 1 0 0 0 0 0 0 0 0 0

Total # of neighbors = 822461
Ave neighs/atom = 575.55
Ave special neighs/atom = 2.14276
Neighbor list builds = 0
Dangerous builds = 0
#
Total wall time: 0:00:00
