LAMMPS data file from restart file: timestep = 20000; edited to sort order and remove velocities

1429 atoms
961 bonds
514 angles
63 dihedrals
6 impropers
80 atom types
125 bond types
274 angle types
327 dihedral types
27 improper types
-1.6227808001752422e+01 8.0215719986556113e+00 xlo xhi
-1.0816801999999999e+01 1.3432577999999999e+01 ylo yhi
-1.0285513000000000e+01 1.3963866999999999e+01 zlo zhi

Masses

1 14.007
2 1.008
3 12.011
4 1.008
5 12.011
6 1.008
7 14.007
8 12.011
9 15.999
10 14.007
11 1.008
12 12.011
13 1.008
14 15.999
15 12.011
16 12.011
17 14.007
18 12.011
19 32.06
20 12.011
21 14.007
22 14.007
23 12.011
24 12.011
25 1.008
26 14.007
27 1.008
28 15.999
29 14.007
30 12.011
31 12.011
32 12.011
33 1.008
34 14.007
35 1.008
36 12.011
37 15.999
38 15.9994  # OT
39 1.008  # HT
40 15.9994
41 1.008
42 14.007
43 12.011
44 1.008
45 12.011
46 1.008
47 30.974
48 15.9994
49 15.9994
50 12.011
51 1.008
52 15.9994
53 12.011
54 15.9994
55 12.011
56 1.008
57 14.007
58 1.008
59 12.011
60 1.008
61 39.0983
62 35.45
63 63.5
64 24.305
65 40.08
66 55.847
67 14.007
68 12.011
69 12.011
70 12.011
71 12.011
72 1.008
73 15.9994
74 15.9994
75 1.008
76 12.011
77 1.008
78 12.011
79 1.008
80 15.999

Pair Coeffs

1       0.2     3.296325    0.2     3.29632
2       0.046   0.4000135   0.046   0.4000135
3       0.02    4.053589    0.01    3.385415  #CT1
4       0.022   2.351973    0.022   2.351973  #HA
5       0.055   3.875409    0.01    3.385415  #CT2
6       0.022   2.351973    0.022   2.35197   #HB
7       0.2     3.29632     0.2     3.29632
8       0.11    3.563595    0.11    3.563595  #C
9       0.12    3.029056    0.12    2.494516  #O
10      0.2     3.296325    0.2     2.761786  #NH1
11      0.046   0.4000135   0.046   0.4000135 #H
12      0.07 3.55005 0.07 3.55005
13      0.03 2.42004 0.03 2.42004
14      0.1521  3.153781    0.1521  3.153781 #OH1
15      0.08    3.670503    0.01    3.385415 #CT3
16      0.07    3.55005 0.07 3.55005
17      0.2  3.29632 0.2 3.29632
18      0.09 3.20723 0.09 3.38542
19      0.45 3.56359 0.45 3.56359
20      0.07    3.563595    0.07    3.563595 #CD
21      0.2  3.29632 0.2 3.29632
22      0.2  3.29632 0.2 3.29632
23      0.05 3.20723 0.05 3.20723
24      0.05 3.20723 0.05 3.20723
25      0.046 1.60362 0.046 1.60362
26      0.2 3.29632 0.2 3.29632
27      0.0078 2.61568 0.0078 2.61568
28      0.12      3.029056   0.12      3.029056 #OC
29      0.2       3.29632    0.0001    3.29632
30      0.055     3.87541    0.01      3.38542
31      0.02      4.05359    0.01      3.38542
32      0.055     3.87541    0.01      3.38542
33      0.1       0.801809   0.1       0.801809
34      0.2       3.29632    0.2       3.29632
35      0.046 1.24726 0.046 1.24726
36      0.07      3.563595   0.07      3.563595 #CC
37      0.12      3.02906    0.12      2.49452  #OB
38      0.1554253 3.16549    0.1554253 3.165492 #OT
39      0         0          0         0        #HT
40      0.0986097 3.118507   0.0986097 3.118507 #OTH
41      4.0583e-05  0        4.0583e-05  0      #HTH
42      0.2 3.29632 0.2 3.29632
43      0.08 3.6705 0.01 3.38542
44      0.046 1.24726 0.046 1.24726
45      0.056 3.58141 0.01 3.38542
46      0.028 2.38761 0.028 2.38761
47      0.585 3.83087 0.585 3.83087
48      0.12 3.02906 0.12 3.02906
49      0.1 2.93997 0.1 2.93997
50      0.02 4.05359 0.01 3.38542
51      0.022 2.35197 0.022 2.35197
52      0.1 2.93997 0.1 2.93997
53      0.07 3.56359 0.07 3.56359
54      0.12 3.02906 0.12 2.49452
55      0.078 3.63487 0.01 3.38542
56      0.024 2.38761 0.024 2.38761
57      0.2 3.29632 0.2 3.29632
58      0.046 0.400014 0.046 0.400014
59      0.068 3.72396 0.068 3.72396
60      0.031 2.22725 0.031 2.22725
61      0.087 3.14264 0.087 3.14264
62      0.15 4.04468 0.15 4.04468
63      0.06 2.45888 0.06 2.45888
64      0.015 2.11143 0.015 2.11143
65      0.12 2.43572 0.12 2.43572
66      0.05 2.13816 0.05 2.13816
67      0.2 3.29632 0.2 3.29632
68      0.09 3.20723 0.09 3.20723
69      0.09 3.20723 0.09 3.20723
70      0.09 3.20723 0.09 3.20723
71      0.06 3.20723 0.06 3.20723
72      0.046 1.60362 0.046 1.60362
73      0.12 3.02906 0.12 2.49452
74      0.1521 3.15378 0.1521 3.15378
75      0.046 0.400014 0.046 0.400014
76      0.068 3.72396 0.068 3.72396
77      0.031 2.22725 0.031 2.22725
78      0.064 3.70614 0.064 3.70614
79      0.026 2.24506 0.026 2.24506
80      0.12 3.02906 0.12 3.02906

Angle Coeffs

1 51.5 107.5 0 0
2 43.7 110 0 0
3 30 109.5 20 2.074
4 44 109.5 0 0
5   80 121 0 0
6   80 116.5 0 0
7   33.43 110.1 22.53 2.179
8   58.35 113.5 11.16 2.561
9   26.5 110.1 22.53 2.179
10 58.35 113.6 11.16 2.561
11  35 111 0 0
12  52   108   0   0  # C    CT1  CT2
13 67.7 110 0 0
14  35.5 109 5.4 1.802
15 67.7 107.5 0 0
16 40.4 120 0 0
17 62.3 120 0 0
18 52 120 90 2.3642
19 51.5 107.5 0 0
20 49 120 0 0
21 25 120 0 0
22  50  109.5   0   0 # C    CT1  HB
23 48 108 0 0
24 50 107 0 0
25  80 122.5 0 0
26  34 123 0 0   # C    NH1  H
27  35 117 0 0
28 80 121 0 0
29 80 116.5 0 0
30  50 120 0 0     # C    NH1  CT1
31 36 115 0 0
32 50 109.5 0 0
33  48 108 0 0
34  50 107 0 0     # C    CT1  NH1
35  35 117 0 0
36 51.8 107.5 0 0
37  50 120 0 0       # C    NH1  CT3
38 45.8 122.3 0 0
39  70 113.5 0 0
40 40 120 35 2.4162
41 30 120 22 2.1525
42 49.3 107.5 0 0
43 34.5 110.1 22.53 2.179
44 53.35 108.5 8 2.561
45 75.7 110.1 0 0
46 33.43 110.1 22.53 2.179
47 57.5 106 0 0
48 35 111 0 0
49 52 108 0 0
50 70 113.5 0 0
51 45.9 108.89 0 0
52 75.7 110.1 0 0
53 34.5 110.1 22.53 2.179
54  35.5 108.4 5.4 1.802
55 58.35 114 0 0
56 45.8 129.4 0 0
57 45.8 124 0 0
58 110 107.4 0 0
59 160 130.6 0 0
60 33.43 109.5 0 0
61 28 126 0 0
62 110 108 0 0
63 32 125 25 2.173
64 110 107.4 0 0
65 120 110 25 2.24
66 32 125 25 2.177
67 60 118 0 0
68 30 122 22 2.146
69 28 126 0 0
70 120 107.4 25 2.261
71 60 122 0 0
72 160 130.6 0 0
73 58 114.5 0 0
74 34 95 0 0
75 46.1 111.3 0 0
76 46.1 111.3 0 0
77 75.7 110.1 0 0
78 57.5 106 0 0
79 45.9 108.89 0 0
80 52 108 0 0
81 15 121 50 2.44
82 50 116.5 50 2.45
83 50 120 0 0
84  33 109.5 30 2.163   # C    CT3  HA
85 75 122.5 50 2.37
86 23 120 0 0
87 58.35 113 0 0
88 45.8 130 0 0
89 45.8 120 0 0
90 130 110 0 0
91 130 104 0 0
92 33.43 109.5 0 0
93 30 127 20 2.14
94 25 125 20 2.12
95 130 106 0 0
96 25 124 20 2.14
97 130 112.5 0 0
98 25 122.5 20 2.14
99 30 125.5 20 2.15
100 130 107.5 0 0
101 25 130 20 2.2
102 67.7 110 0 0
103 30 109.5 20 2.074
104 45 107.5 35 2.101
105 40 118 50 2.388
106 100 124 70 2.225
107 53.35 111 8 2.561
108 58.35 113.5 11.16 2.561
109 34.6 110.1 22.53 2.179
110 34.5 110.1 22.53 2.179
111 53.35 114 8 2.561
112 34.6 110.1 22.53 2.179
113 53.35 114 8 2.561
114 58.35 113.5 11.16 2.561
115 65 108 0 0
116 45.2 120 0 0
117 35 111 0 0
118 52 108 0 0
119 70 113.5 0 0
120 52   108 0 0    # CD   CT2  CT1
121 20 112.5 0 0
122 48 112 0 0
123 70 110.8 0 0
124 48 108 0 0
125 80 122.5 0 0
126 26.5 110.1 22.53 2.179
127 60 117 0 0
128 35.5 109 5.4 1.802
129 80 118 0 0
130 80 116.5 0 0
131 33.43 110.1 22.53 2.179
132 70 108.5 0 0
133 60 117 0 0
134 100 114.2 0 0
135 26.5 110.1 22.53 2.179
136 70 108.5 0 0
137 35 118 0 0
138 35.5 109 5.4 1.802
139 26.5 110.1 22.53 2.179
140 70 110.5 0 0
141 50 112 0 0
142 52 112.3 0 0
143 50 108.2 0 0
144 58 112.5 0 0
145 38.8 95 0 0
146 45.8 122 0 0
147 145 108 0 0
148 25 126 15 2.13
149 22 130 15 2.215
150 145 108 0 0
151 22 122 15 2.18
152 25 126 15 2.09
153 145 108 0 0
154 32 126 25 2.14
155 45.8 124 0 0
156 50 90 0 0
157 25 120 20 2.14
158 20 112.5 0 0
159 50 111 0 0
160 38 109.5 50 2.14
161 39 106.5 0 0
162 67.7 110 0 0
163 70   125 20 2.442
164 55   110.5 0 0
165 33 109.5 30 2.163
166 50   123 210 2.262
167 55   115 0 0
168 52 108 0 0
169 0 180 0 0
170 0 180 0 0
171 50 109.5 0 0
172 40 118 50 2.388
173 50 107 0 0
174 52 108 0 0
175 67.7 110 0 0
176 20 112.5 0 0
177 52 108 0 0
178 51.5 107.5 0 0
179 43.7 110 0 0
180 52 108 0 0
181 37.95    113.24   0 0  # HT   OT   HT
182 38.74335 111.7269 0 0  # HTH  OTH  HTH
183 67.7 115 0 0
184 40 109.5 27 2.13
185 40 109.5 27 2.13
186 60 109.5 26 2.466
187 60 109.5 26 2.466
188 24 109.5 28 1.767
189 75.7 110.1 0 0
190 26.5 110.1 22.53 2.179
191 33.43 110.1 22.53 2.179
192 24 109.5 28 1.767
193 20 120 35 2.33
194 60 109.5 0 0
195 35.5 109 5.4 1.802
196 120 120 0 0
197 98.9 111.6 0 0
198 80 104.3 0 0
199 75.7 110.1 0 0
200 58.35 113.5 11.16 2.561
201 34.5 110.1 22.53 2.179
202 26.5 110.1 22.53 2.179
203 75.7 110.1 0 0
204 40 109.6 30 2.2651
205 75.7 110.1 0 0
206 60 109.5 0 0
207 90 125.9 160 2.2576
208 55 109 20 2.326
209 52 108 0 0
210 33 109.5 30 2.163
211 58.35 113.6 11.16 2.561
212 70 125 20 2.442
213 40 109.6 30 2.2651
214 60 109.5 0 0
215 58 115 8 2.561
216 34.6 110.1 22.53 2.179
217 34.6 110.1 22.53 2.179
218 35.5 108.4 5.4 1.802
219 67.7 110 0 0
220 45 107.5 35 2.0836
221 33 109.5 4 2.056
222 41 109.5 0 0
223 32 112.2 0 0
224 48 123.5 0 0
225 40 116 0 0
226 45 111.5 0 0
227 52 119.5 0 0
228 0 104 0 0
229 0 104 0 0
230 96.15 128.05 0 0
231 30 123 0 0
232 30 133 0 0
233 88 124.39 0 0
234 122 111.54 0 0
235 14.39 90 0 0
236 12.7 117.44 0 0
237 65 126.74 0 0
238 30.8 106.51 0 0
239 139.3 103.9 0 0
240 50 109.5 0 0
241 70 113 0 0
242 45 119.8 0 0
243 61.6 124.07 0 0
244 65 126.75 0 0
245 94.2 125.12 0 0
246 45 119.8 0 0
247 65 126.74 0 0
248 50 109.5 0 0
249 58.35 113.5 11.16 2.561
250 75.7 110.1 0 0
251 34.5 110.1 22.53 2.179
252 65 126.75 0 0
253 70 126.75 0 0
254 50 120 0 0
255 70 121.5 0 0
256 70 126.74 0 0
257 15 116 0 0
258 75 126 0 0
259 65 118 0 0
260 58.35 113.5 11.16 2.561
261 57.5 106 0 0
262 65 126.74 0 0
263 65 126.75 0 0
264 45.9 108.89 0 0
265 75.7 110.1 0 0
266 45 120.5 0 0
267 42 118 0 0
268 19 119 0 0
269 48 123.5 0 0
270 42 111.5 0 0
271 47 125.2 0 0
272 47 125.2 0 0
273 5 90 0 0
274 51.5   109.5 0 0

Dihedral Coeffs

1 0.2 3 0 1
2 0.6 1 0 1
3 0 1 0 1
4 0.1 3 0 1
5 2.5 2 180 1
6 1.6 1 0 1
7 2.5 2 180 0
8 0.195 3 0 1
9 0 1 0 1
10 0 1 0 1
11 0 1 0 1
12 1.4 1 0 1
13 0 6 180 1
14 2.25 2 180 1
15 0.2 1 180 1
16 0 1 0 1
17 2.5 2 180 1
18 2.5 2 180 1
19 0.6 1 0 1
20 0 1 0 1
21 0 1 0 1
22 0 1 0 1
23 2.5 2 180 1
24 1.6 1 0 1
25 2.5 2 180 0
26 0 1 0 1
27 0 1 0 1
28 1.8 1 0 1
29 0.2 1 180 1
30 0 1 0 1
31 2.5 2 180 1
32 0.6 1 0 1
33 0 1 0 1
34 0 1 0 1
35 0 1 0 1
36 0 1 0 1
37 1.6 1 0 1
38 2.5 2 180 0
39 0.23 2 180 1
40 4.2 2 180 1
41 3.1 2 180 1
42 0 6 0 1
43 3.1 2 180 1
44 4.2 2 180 1
45 0.04 3 0 1
46 2.4 2 180 1
47 1.8 1 0 1
48 0.2 3 0 1
49 0 1 0 1
50 1.33 1 0 1
51 0.18 2 0 0
52 0.32 3 0 0
53 0.2 3 0 1
54 0 1 0 1
55 1.4 1 0 1
56 0.14 3 0 1
57 1.33 1 0 1
58 0.18 2 0 0
59 0.32 3 0 0
60 0.23 2 180 1
61 0.23 2 180 1
62 3 2 180 1
63 3 2 180 1
64 3.5 2 180 1
65 1.2 2 180 1
66 0.25 2 180 1
67 0.25 2 180 1
68 3 2 180 1
69 3 2 180 1
70 10 2 180 1
71 5 2 180 1
72 5 2 180 1
73 0.8 2 180 1
74 3 2 180 1
75 5 2 180 1
76 3 2 180 1
77 4 2 180 1
78 2 2 180 1
79 0.4 2 180 1
80 2 2 180 1
81 3 2 180 1
82 2.8 2 180 1
83 10 2 180 1
84 4 2 180 1
85 0.8 2 180 1
86 0.8 2 180 1
87 3.1 2 180 1
88 3 2 180 1
89 3 2 180 1
90 3.1 2 180 1
91 3.1 2 180 1
92 0.24 1 180 1
93 0.37 3 0 0
94 0.01 3 0 1
95 0.28 3 0 1
96 0.28 3 0 1
97 1.3 1 0 1
98 0.3 2 0 0
99 0.42 3 0 0
100 0.14 3 0 1
101 0.05 6 180 1
102 1.4 2 180 1
103 0 3 180 1
104 0 3 180 1
105 1.4 2 180 1
106 0.19 3 0 1
107 0.2 1 0 1
108 0.27 2 0 0
109 0 3 0 0
110 3 2 180 1
111 3 2 180 1
112 2 2 180 1
113 0.19 3 0 1
114 0 3 0 1
115 14 2 180 1
116 1 2 180 1
117 14 2 180 1
118 3 2 180 1
119 14 2 180 1
120 1 2 180 1
121 14 2 180 1
122 3 2 180 1
123 3 2 180 1
124 14 2 180 1
125 3 2 180 1
126 1 2 180 1
127 1 2 180 1
128 0.15 1 0 1
129 0.1 3 0 1
130 0.16 3 0 1
131 3.1 2 180 1
132 0.99 2 180 1
133 4.2 2 180 1
134 1.6 1 0 1
135 2.5 2 180 0
136 1.8 1 0 1
137 0 1 0 1
138 0 1 0 1
139 1.4 1 0 1
140 0.4 1 0 1
141 2.75 2 180 1
142 0.3 4 0 0
143 2.75 2 180 1
144 0.3 4 0 0
145 0 1 0 1
146 0 1 0 1
147 0.8 3 0 1
148 0.8 3 0 1
149 0.8 3 0 1
150 0 3 180 1
151 0 3 180 1
152 2.75 2 180 1
153 0.3 4 0 0
154 2.75 2 180 1
155 0.3 4 0 0
156 0.3 1 0 1
157 -0.3 4 0 0
158 -0.3 4 0 1
159 0.14 3 0 1
160 0.14 3 0 1
161 0.16 3 0 1
162 0.1 3 0 1
163 0.1 3 0 1
164 0.1 3 0 1
165 0.1 3 0 1
166 2.5 2 180 1
167 1.6 1 0 1
168 2.5 2 180 0
169 0.1 3 0 1
170 0.4 1 180 1
171 0.6 2 0 0
172 0.4 1 0 1
173 0.6 2 0 0
174 0.4 1 0 1
175 0.6 2 0 0
176 0.4 1 180 1
177 0.6 2 0 0
178 0.24 1 0 1
179 0.15 2 0 0
180 0.27 3 0 0
181 0.2 3 0 1
182 0.19 3 0 1
183 2.5 2 180 1
184 3 2 180 1
185 2.5 2 180 1
186 1 2 180 1
187 0.19 3 0 1
188 12 2 180 1
189 3 2 180 1
190 12 2 180 1
191 1.4 2 180 1
192 3 2 180 1
193 2.5 2 180 1
194 2.5 2 180 1
195 1.4 2 180 1
196 12 2 180 1
197 0 2 180 1
198 0 1 0 1
199 1.6 1 0 1
200 2.5 2 180 0
201 0 1 0 1
202 3 2 180 1
203 1 2 180 1
204 3 2 180 1
205 0.19 3 0 1
206 0.19 3 0 1
207 3 2 180 1
208 0.05 4 0 1
209 3 2 180 1
210 0.3 1 0 1
211 -0.3 4 0 0
212 2.75 2 180 1
213 0.3 4 0 0
214 2.75 2 180 1
215 0.3 4 0 0
216 0.4 1 180 1
217 0.6 2 0 0
218 0.4 1 0 1
219 0.6 2 0 0
220 0.11 3 0 1
221 0.11 3 0 1
222 2.05 2 180 1
223 0 6 180 1
224 0.2 1 180 1
225 0 1 0 1
226 0.05 6 180 1
227 0.4 1 0 1
228 2.75 2 180 1
229 0.3 4 0 0
230 2.75 2 180 1
231 0.3 4 0 0
232 0 1 0 1
233 0.4 1 0 1
234 0 1 0 1
235 0.19 3 0 1
236 3.3 1 180 1
237 -0.4 3 180 0
238 0.23 3 0 1
239 0.26 3 0 1
240 0.407 2 0 1
241 0.241 1 180 0
242 1.2 1 180 1
243 0.1 2 180 0
244 0.1 3 180 0
245 0.1 3 0 1
246 0 3 0 1
247 0.407 2 0 1
248 0.241 1 180 0
249 0.2 3 0 1
250 0 4 0 1
251 0.607 3 180 0
252 0.254 2 60 0
253 2.016 1 180 0
254 0 3 0 1
255 0 4 0 1
256 0.15 3 180 0
257 1.453 2 180 0
258 0.837 1 180 0
259 0.267 3 180 1
260 0.173 2 0 0
261 0.781 1 180 0
262 2.05 2 180 1
263 0.965 1 180 1
264 3.85 2 180 0
265 0 3 0 1
266 0 6 180 1
267 0 6 0 1
268 0.03 3 180 0
269 0.432 2 180 0
270 0.332 1 0 0
271 -0.429 4 60 1
272 0.614 3 0 0
273 -0.115 2 60 0
274 0.703 1 180 0
275 0 5 180 1
276 0.317 3 180 0
277 0.557 2 0 0
278 0.753 1 0 0
279 0 6 180 1
280 0.05 6 180 1
281 0.101 2 0 1
282 0.142 3 180 0
283 0.074 4 0 0
284 0.097 5 0 0
285 0.965 1 180 1
286 3.85 2 180 0
287 0 3 0 1
288 0.162 2 0 1
289 0.047 3 180 0
290 0.105 4 0 0
291 0.177 5 0 0
292 0.16 3 0 1
293 0.7 1 180 1
294 0.1 3 0 1
295 0.14 1 180 1
296 0.17 2 0 0
297 0.05 3 180 0
298 0.12 3 0 1
299 0.91 1 180 1
300 0.18 2 180 0
301 0.17 3 180 0
302 0.45 1 180 1
303 8.5 2 180 0
304 0 3 0 1
305 0.3 3 180 1
306 1 2 180 1
307 0 6 0 1
308 0 6 0 1
309 0 2 0 1
310 0 2 0 1
311 0 2 0 1
312 0 2 0 1
313 0 2 0 1
314 0 6 0 1
315 1.08 2 180 1
316 0 6 0 1
317 0 6 0 1
318 0.14 3 0 1
319 3 2 180 1
320 5.2 2 180 1
321 5.2 2 180 1
322 0.3 3 180 1
323 1 2 180 1
324 0 3 0 1
325 0.12 3 0 1
326 0 3 0 1
327 0 3 0 1

Improper Coeffs

1 40 0
2 120 0
3 20 0
4 45 0
5 4 0
6 0.5 0
7 0.45 0
8 0.5 0
9 96 0
10 0 0
11 1.2 0
12 0.5 0
13 100 0
14 96 0
15 100 0
16 40.6 0
17 18.3 0
18 137.4 0
19 20.8 0
20 32.7 0
21 90 0
22 29.4 0
23 53 0
24 96 0
25 90 0
26 3 0
27 3 0

Atoms

1 272 6 8.9999999999999997e-02 -1.2068976064219662e+01 7.9204742158718204e+00 -9.9757374083383894e+00 2 6 10
2 272 15 -2.7000000000000002e-01 -1.2588252676663021e+01 8.6382466159908624e+00 -9.2730883339977783e+00 2 6 10
3 272 6 8.9999999999999997e-02 -1.1876665390605716e+01 9.1767692653664952e+00 -8.6547262567566001e+00 2 6 10
4 272 6 8.9999999999999997e-02 -1.3085571944500657e+01 9.4459676007287854e+00 -9.8800997504127288e+00 2 6 10
5 272 8 5.1000000000000001e-01 -1.3568755151590279e+01 7.9267962731131512e+00 -8.4573187786308690e+00 2 6 10
6 272 9 -5.1000000000000001e-01 -1.3724991074598819e+01 6.6813715762047146e+00 -8.5736689870642486e+00 2 6 10
7 273 10 -4.6999999999999997e-01 -1.4312943705414932e+01 8.5906231797104979e+00 -7.5240172052968646e+00 2 6 10
8 273 11 3.1000000000000000e-01 -1.4185209988847060e+01 9.4954646585401115e+00 -7.2411708272575606e+00 2 6 10
9 273 3 7.0000000000000007e-02 -1.5379504389662921e+01 8.0478382450209907e+00 -6.7658894097826270e+00 2 6 10
10 273 4 8.9999999999999997e-02 -1.5577328983847602e+01 7.0267290480887716e+00 -7.1075529370762958e+00 2 6 10
11 273 3 -1.7999999999999999e-01 -1.5030668427505191e+01 8.1699174011512277e+00 -5.2196577565719036e+00 2 6 10
12 273 6 8.9999999999999997e-02 -1.4349074895548743e+01 7.2907211536812504e+00 -4.9962865249479291e+00 2 6 10
13 273 6 8.9999999999999997e-02 -1.4553468608925412e+01 9.1637319973167131e+00 -5.0829499542880692e+00 2 6 10
14 273 5 -2.8000000000000003e-01 -1.6126787062978700e+01 7.8616630269481433e+00 -4.1857430753996523e+00 2 6 10
15 273 6 8.9999999999999997e-02 -1.5669778269558185e+01 7.9901410083862459e+00 -3.1522722748139529e+00 2 6 10
16 273 6 8.9999999999999997e-02 7.2937728213792248e+00 8.6049726897697063e+00 -4.1184788632751133e+00 1 6 10
17 273 20 6.2000000000000000e-01 7.4831169057449820e+00 6.4830089158034809e+00 -4.2980108890503983e+00 1 6 10
18 273 28 -7.6000000000000001e-01 6.7758929687012817e+00 6.1941444483327679e+00 -5.2603497801095891e+00 1 6 10
19 273 28 -7.6000000000000001e-01 7.7200354615726425e+00 5.6856662233909923e+00 -3.3367159252787051e+00 1 6 10
20 273 8 5.1000000000000001e-01 7.7280735794999842e+00 8.8602037693537419e+00 -7.2164147566020693e+00 1 6 10
21 273 9 -5.1000000000000001e-01 7.9842126033642025e+00 9.8646559235541780e+00 -7.8820808904425448e+00 1 6 10
22 274 10 -4.6999999999999997e-01 6.5396152143851509e+00 8.3812129526835868e+00 -6.9294070056148982e+00 1 6 10
23 274 11 3.1000000000000000e-01 6.5132967112706126e+00 7.5273492104414643e+00 -6.4476826564237992e+00 1 6 10
24 274 15 -1.1000000000000000e-01 5.3034976916130248e+00 8.9873871475596268e+00 -7.5339182199432919e+00 1 6 10
25 274 6 8.9999999999999997e-02 4.4514225319846652e+00 8.4110919309202501e+00 -7.0654630116944936e+00 1 6 10
26 274 6 8.9999999999999997e-02 5.1679316399581410e+00 1.0043320649306903e+01 -7.1304080489411472e+00 1 6 10
27 274 6 8.9999999999999997e-02 5.3397405473926085e+00 8.9563422108201749e+00 -8.6690847637779402e+00 1 6 10
28 300 40 -3.20E-01 -1.36E+01 2.54E+00 -4.34E+00 2 5 11
29 300 41 4.40E-01 -1.35E+01 1.49E+00 -4.28E+00 2 5 11
30 300 41 4.40E-01 -1.45E+01 3.04E+00 -3.88E+00 2 5 11
31 300 41 4.40E-01 -1.36E+01 2.85E+00 -5.34E+00 3 5 10
32 1115 38 -8.20E-01 -1.15E+01 -7.24E+00 -7.54E+00 1 7 13
33 1115 39 4.10E-01 -1.11E+01 -8.04E+00 -8.08E+00 1 7 13
34 1115 39 4.10E-01 -1.14E+01 -7.35E+00 -6.53E+00 1 7 13
35 1116 38 -8.20E-01 -1.02E+01 -3.77E+00 6.09E+00 4 8 10
36 1116 39 4.10E-01 -9.60E+00 -3.04E+00 6.58E+00 4 8 10
37 1116 39 4.10E-01 -1.11E+01 -3.66E+00 6.51E+00 4 8 10
38 1117 38 -8.20E-01 2.57E+00 1.15E+01 4.57E+00 1 4 12
39 1117 39 4.10E-01 3.37E+00 1.22E+01 4.47E+00 1 4 12
40 1117 39 4.10E-01 3.02E+00 1.07E+01 4.14E+00 1 4 12
41 1118 38 -8.20E-01 -9.71E+00 1.18E+01 8.86E+00 3 5 11
42 1118 39 4.10E-01 -9.74E+00 1.19E+01 7.81E+00 3 5 11
43 1118 39 4.10E-01 -1.05E+01 1.22E+01 9.39E+00 3 5 11
44 1119 38 -8.20E-01 -6.28E+00 1.19E+01 -9.09E+00 2 7 10
45 1119 39 4.10E-01 -6.01E+00 1.19E+01 -1.01E+01 2 7 10
46 1119 39 4.10E-01 -7.30E+00 1.18E+01 -9.21E+00 2 7 10
47 1120 38 -8.20E-01 -1.11E-01 5.09E+00 -4.85E+00 3 7 12
48 1120 39 4.10E-01 1.88E-01 4.99E+00 -3.91E+00 3 7 12
49 1120 39 4.10E-01 -3.99E-01 6.08E+00 -4.85E+00 3 7 12
50 1121 38 -8.20E-01 -1.09E+01 -1.03E+01 3.37E+00 3 9 10
51 1121 39 4.10E-01 -1.12E+01 -1.05E+01 2.42E+00 3 9 10
52 1121 39 4.10E-01 -1.16E+01 1.34E+01 4.05E+00 3 8 10
53 1122 38 -8.20E-01 -1.24E+01 -2.93E+00 -2.48E+00 1 5 10
54 1122 39 4.10E-01 -1.18E+01 -3.67E+00 -1.96E+00 1 5 10
55 1122 39 4.10E-01 -1.34E+01 -2.87E+00 -2.12E+00 1 5 10
56 1123 38 -8.20E-01 -7.52E+00 -7.29E+00 6.45E+00 -1 6 12
57 1123 39 4.10E-01 -8.23E+00 -6.93E+00 5.78E+00 -1 6 12
58 1123 39 4.10E-01 -7.88E+00 -7.99E+00 7.13E+00 -1 6 12
59 1124 38 -8.20E-01 -1.05E+01 -9.35E+00 -8.81E+00 3 6 10
60 1124 39 4.10E-01 -1.10E+01 -9.80E+00 -9.56E+00 3 6 10
61 1124 39 4.10E-01 -9.67E+00 -8.97E+00 -9.27E+00 3 6 10
62 1125 38 -8.20E-01 6.85E+00 -8.24E+00 1.07E+00 2 5 11
63 1125 39 4.10E-01 7.65E+00 -8.77E+00 8.13E-01 2 5 11
64 1125 39 4.10E-01 6.08E+00 -8.81E+00 1.37E+00 2 5 11
65 1126 38 -8.20E-01 -8.05E+00 1.77E-01 3.14E-01 3 6 12
66 1126 39 4.10E-01 -8.26E+00 1.17E+00 1.06E-01 3 6 12
67 1126 39 4.10E-01 -7.70E+00 1.97E-01 1.30E+00 3 6 12
68 1127 38 -8.20E-01 1.95E+00 -7.19E+00 7.34E+00 2 8 12
69 1127 39 4.10E-01 2.26E+00 -6.82E+00 6.45E+00 2 8 12
70 1127 39 4.10E-01 2.70E+00 -7.23E+00 8.06E+00 2 8 12
71 1128 38 -8.20E-01 2.36E+00 5.84E+00 1.29E+01 2 4 11
72 1128 39 4.10E-01 2.13E+00 4.86E+00 1.32E+01 2 4 11
73 1128 39 4.10E-01 3.31E+00 5.90E+00 1.26E+01 2 4 11
74 1129 38 -8.20E-01 -5.02E+00 -3.22E+00 -4.41E+00 0 7 13
75 1129 39 4.10E-01 -4.81E+00 -2.51E+00 -5.12E+00 0 7 13
76 1129 39 4.10E-01 -4.89E+00 -4.15E+00 -4.91E+00 0 7 13
77 1130 38 -8.20E-01 6.15E+00 1.25E+01 9.63E-01 0 5 11
78 1130 39 4.10E-01 6.55E+00 1.25E+01 1.87E+00 0 5 11
79 1130 39 4.10E-01 5.43E+00 1.33E+01 8.44E-01 0 5 11
80 1131 38 -8.20E-01 1.36E-01 3.83E+00 1.07E+00 1 5 9
81 1131 39 4.10E-01 -4.77E-01 4.51E+00 5.49E-01 1 5 9
82 1131 39 4.10E-01 1.15E+00 3.92E+00 7.82E-01 1 5 9
83 1132 38 -8.20E-01 -1.42E+01 -1.01E+01 9.22E+00 1 7 10
84 1132 39 4.10E-01 -1.51E+01 -1.06E+01 9.45E+00 1 7 10
85 1132 39 4.10E-01 -1.44E+01 -9.21E+00 9.65E+00 1 7 10
86 1133 38 -8.20E-01 7.08E+00 -3.56E+00 -2.46E-01 0 6 11
87 1133 39 4.10E-01 7.41E+00 -4.36E+00 3.44E-01 0 6 11
88 1133 39 4.10E-01 6.96E+00 -2.78E+00 4.01E-01 0 6 11
89 1134 38 -8.20E-01 8.01E+00 4.45E+00 -6.80E+00 2 7 11
90 1134 39 4.10E-01 7.43E+00 5.15E+00 -6.27E+00 2 7 11
91 1134 39 4.10E-01 7.64E+00 3.51E+00 -6.57E+00 2 7 11
92 1135 38 -8.20E-01 -1.01E+01 1.22E+01 6.34E+00 3 6 10
93 1135 39 4.10E-01 -1.09E+01 1.24E+01 5.75E+00 3 6 10
94 1135 39 4.10E-01 -9.29E+00 1.26E+01 5.92E+00 3 6 10
95 1136 38 -8.20E-01 -5.87E+00 1.08E+00 6.84E+00 2 6 10
96 1136 39 4.10E-01 -6.77E+00 1.27E+00 7.35E+00 2 6 10
97 1136 39 4.10E-01 -5.88E+00 1.79E+00 6.08E+00 2 6 10
98 1137 38 -8.20E-01 1.89E+00 7.61E+00 3.40E+00 2 4 10
99 1137 39 4.10E-01 1.85E+00 6.58E+00 3.42E+00 2 4 10
100 1137 39 4.10E-01 1.39E+00 7.83E+00 2.47E+00 2 4 10
101 1138 38 -8.20E-01 -5.84E+00 -4.78E+00 5.24E+00 0 8 8
102 1138 39 4.10E-01 -5.86E+00 -5.51E+00 5.92E+00 0 8 8
103 1138 39 4.10E-01 -6.48E+00 -4.90E+00 4.42E+00 0 8 8
104 1139 38 -8.20E-01 -1.17E-01 1.71E+00 -4.18E-01 0 5 10
105 1139 39 4.10E-01 9.36E-02 2.32E+00 4.31E-01 0 5 10
106 1139 39 4.10E-01 -7.48E-01 2.27E+00 -9.08E-01 0 5 10
107 1140 38 -8.20E-01 3.32E+00 1.19E+01 -6.82E+00 3 4 10
108 1140 39 4.10E-01 2.51E+00 1.21E+01 -6.21E+00 3 4 10
109 1140 39 4.10E-01 3.05E+00 1.11E+01 -7.41E+00 3 4 10
110 1141 38 -8.20E-01 5.87E+00 6.07E+00 -1.54E+00 -1 4 11
111 1141 39 4.10E-01 6.20E+00 6.33E+00 -6.00E-01 -1 4 11
112 1141 39 4.10E-01 6.66E+00 5.92E+00 -2.10E+00 -1 4 11
113 1142 38 -8.20E-01 -9.93E+00 7.32E+00 1.16E+01 0 6 11
114 1142 39 4.10E-01 -1.00E+01 6.99E+00 1.06E+01 0 6 11
115 1142 39 4.10E-01 -8.94E+00 7.37E+00 1.18E+01 0 6 11
116 1143 38 -8.20E-01 -1.00E+01 6.79E+00 -7.66E+00 4 6 10
117 1143 39 4.10E-01 -9.97E+00 6.47E+00 -8.64E+00 4 6 10
118 1143 39 4.10E-01 -1.07E+01 6.20E+00 -7.21E+00 4 6 10
119 1144 38 -8.20E-01 -1.24E+01 -1.94E+00 1.35E+01 2 7 10
120 1144 39 4.10E-01 -1.30E+01 -2.10E+00 1.26E+01 2 7 10
121 1144 39 4.10E-01 -1.16E+01 -2.58E+00 1.35E+01 2 7 10
122 1145 38 -8.20E-01 5.90E+00 1.04E+01 5.93E+00 2 5 10
123 1145 39 4.10E-01 5.41E+00 1.12E+01 6.46E+00 2 5 10
124 1145 39 4.10E-01 5.19E+00 9.95E+00 5.26E+00 2 5 10
125 1146 38 -8.20E-01 -5.58E+00 6.79E+00 -1.97E+00 5 8 11
126 1146 39 4.10E-01 -6.39E+00 6.86E+00 -1.36E+00 5 8 11
127 1146 39 4.10E-01 -5.03E+00 7.69E+00 -1.93E+00 5 8 11
128 1147 38 -8.20E-01 2.19E+00 4.07E+00 -8.05E+00 1 5 10
129 1147 39 4.10E-01 1.19E+00 4.36E+00 -8.13E+00 1 5 10
130 1147 39 4.10E-01 2.41E+00 4.05E+00 -7.03E+00 1 5 10
131 1148 38 -8.20E-01 -1.22E+01 -4.86E+00 -8.58E+00 1 6 10
132 1148 39 4.10E-01 -1.18E+01 -5.64E+00 -8.01E+00 1 6 10
133 1148 39 4.10E-01 -1.14E+01 -4.36E+00 -9.02E+00 1 6 10
134 1149 38 -8.20E-01 5.81E+00 -4.67E+00 -6.54E+00 1 7 8
135 1149 39 4.10E-01 6.21E+00 -5.09E+00 -5.71E+00 1 7 8
136 1149 39 4.10E-01 5.80E+00 -3.67E+00 -6.54E+00 1 7 8
137 1150 38 -8.20E-01 -2.82E+00 3.48E+00 7.80E+00 1 4 10
138 1150 39 4.10E-01 -2.29E+00 3.37E+00 6.94E+00 1 4 10
139 1150 39 4.10E-01 -3.62E+00 2.76E+00 7.73E+00 1 4 10
140 1151 38 -8.20E-01 -2.29E+00 1.58E-01 -5.08E+00 1 6 10
141 1151 39 4.10E-01 -3.19E+00 -2.61E-01 -5.39E+00 1 6 10
142 1151 39 4.10E-01 -2.33E+00 5.73E-01 -4.17E+00 1 6 10
143 1152 38 -8.20E-01 -1.63E+00 -7.70E+00 5.47E+00 1 7 10
144 1152 39 4.10E-01 -1.59E+00 -6.96E+00 6.22E+00 1 7 10
145 1152 39 4.10E-01 -8.52E-01 -7.53E+00 4.75E+00 1 7 10
146 1153 38 -8.20E-01 -8.21E+00 -7.36E+00 1.15E+01 2 7 12
147 1153 39 4.10E-01 -7.24E+00 -7.55E+00 1.12E+01 2 7 12
148 1153 39 4.10E-01 -8.39E+00 -8.07E+00 1.23E+01 2 7 12
149 1154 38 -8.20E-01 -8.24E+00 -8.21E+00 -9.83E+00 2 8 10
150 1154 39 4.10E-01 -7.55E+00 -8.78E+00 -9.38E+00 2 8 10
151 1154 39 4.10E-01 -7.87E+00 -7.31E+00 -1.01E+01 2 8 10
152 1155 38 -8.20E-01 -4.82E+00 -9.52E+00 1.27E+01 1 8 10
153 1155 39 4.10E-01 -4.71E+00 -9.31E+00 1.37E+01 1 8 10
154 1155 39 4.10E-01 -5.02E+00 -8.65E+00 1.22E+01 1 8 10
155 1156 38 -8.20E-01 -2.95E+00 -5.68E+00 7.41E+00 1 9 11
156 1156 39 4.10E-01 -2.19E+00 -6.15E+00 7.92E+00 1 9 11
157 1156 39 4.10E-01 -3.52E+00 -6.52E+00 7.12E+00 1 9 11
158 1157 38 -8.20E-01 2.70E+00 9.73E+00 -5.03E+00 0 7 9
159 1157 39 4.10E-01 2.06E+00 9.18E+00 -5.60E+00 0 7 9
160 1157 39 4.10E-01 2.94E+00 1.07E+01 -5.39E+00 0 7 9
161 1158 38 -8.20E-01 -1.44E+01 4.26E+00 5.31E-01 2 6 11
162 1158 39 4.10E-01 -1.38E+01 4.82E+00 1.14E+00 2 6 11
163 1158 39 4.10E-01 -1.46E+01 4.99E+00 -1.88E-01 2 6 11
164 1159 38 -8.20E-01 2.19E+00 8.65E+00 1.34E+01 0 5 11
165 1159 39 4.10E-01 2.16E+00 7.64E+00 1.33E+01 0 5 11
166 1159 39 4.10E-01 2.92E+00 8.88E+00 -1.02E+01 0 5 12
167 1160 38 -8.20E-01 -1.14E+00 -3.40E+00 1.10E+00 1 8 10
168 1160 39 4.10E-01 -1.71E+00 -2.55E+00 8.95E-01 1 8 10
169 1160 39 4.10E-01 -1.13E+00 -3.65E+00 2.11E+00 1 8 10
170 1161 38 -8.20E-01 -1.13E+01 1.02E+01 -6.61E+00 1 4 11
171 1161 39 4.10E-01 -1.06E+01 1.09E+01 -6.64E+00 1 4 11
172 1161 39 4.10E-01 -1.09E+01 9.22E+00 -6.53E+00 1 4 11
173 1162 38 -8.20E-01 -1.90E+00 6.48E+00 4.84E+00 3 6 11
174 1162 39 4.10E-01 -1.91E+00 5.44E+00 5.00E+00 3 6 11
175 1162 39 4.10E-01 -9.81E-01 6.71E+00 5.22E+00 3 6 11
176 1163 38 -8.20E-01 2.74E-01 -2.55E+00 4.58E+00 4 9 9
177 1163 39 4.10E-01 1.80E-01 -3.55E+00 4.42E+00 4 9 9
178 1163 39 4.10E-01 -3.36E-01 -2.03E+00 4.02E+00 4 9 9
179 1164 38 -8.20E-01 -1.62E+01 1.20E+01 -6.48E+00 4 5 10
180 1164 39 4.10E-01 -1.61E+01 1.12E+01 -6.96E+00 4 5 10
181 1164 39 4.10E-01 7.96E+00 1.20E+01 -5.47E+00 3 5 10
182 1165 38 -8.20E-01 -4.52E+00 -3.88E+00 8.38E+00 1 5 10
183 1165 39 4.10E-01 -4.04E+00 -4.57E+00 7.77E+00 1 5 10
184 1165 39 4.10E-01 -5.43E+00 -3.46E+00 8.03E+00 1 5 10
185 1166 38 -8.20E-01 -1.43E+01 -1.35E+00 4.47E+00 1 8 10
186 1166 39 4.10E-01 -1.33E+01 -1.24E+00 4.30E+00 1 8 10
187 1166 39 4.10E-01 -1.44E+01 -2.36E+00 4.57E+00 1 8 10
188 1167 38 -8.20E-01 2.14E+00 1.10E+01 1.16E+01 2 7 10
189 1167 39 4.10E-01 2.02E+00 1.02E+01 1.22E+01 2 7 10
190 1167 39 4.10E-01 2.87E+00 1.06E+01 1.10E+01 2 7 10
191 1168 38 -8.20E-01 -9.69E+00 2.71E+00 -6.88E+00 2 6 12
192 1168 39 4.10E-01 -9.85E+00 1.93E+00 -7.63E+00 2 6 12
193 1168 39 4.10E-01 -8.95E+00 3.26E+00 -7.35E+00 2 6 12
194 1169 38 -8.20E-01 1.91E+00 7.86E-01 8.89E+00 2 6 11
195 1169 39 4.10E-01 1.96E+00 -1.90E-01 9.27E+00 2 6 11
196 1169 39 4.10E-01 8.92E-01 8.60E-01 8.71E+00 2 6 11
197 1170 38 -8.20E-01 -1.38E+01 -8.13E+00 4.18E+00 -1 6 9
198 1170 39 4.10E-01 -1.42E+01 -8.98E+00 3.81E+00 -1 6 9
199 1170 39 4.10E-01 -1.43E+01 -7.70E+00 4.95E+00 -1 6 9
200 1172 38 -8.20E-01 -1.18E+01 1.31E+01 1.00E+01 3 6 10
201 1172 39 4.10E-01 -1.27E+01 1.30E+01 9.58E+00 3 6 10
202 1172 39 4.10E-01 -1.14E+01 -1.03E+01 9.69E+00 3 7 10
203 1173 38 -8.20E-01 -6.05E+00 1.26E+01 8.53E+00 2 4 8
204 1173 39 4.10E-01 -5.14E+00 1.31E+01 8.60E+00 2 4 8
205 1173 39 4.10E-01 -6.56E+00 1.24E+01 9.34E+00 2 4 8
206 1174 38 -8.20E-01 1.48E+00 1.27E+01 -5.11E+00 3 7 11
207 1174 39 4.10E-01 7.18E-01 1.20E+01 -4.90E+00 3 7 11
208 1174 39 4.10E-01 1.02E+00 -1.07E+01 -5.10E+00 3 8 11
209 1175 38 -8.20E-01 3.18E+00 -1.06E+01 -8.24E-01 0 6 11
210 1175 39 4.10E-01 2.30E+00 -1.00E+01 -1.01E+00 0 6 11
211 1175 39 4.10E-01 3.37E+00 1.34E+01 -1.75E+00 0 5 11
212 1176 38 -8.20E-01 2.61E+00 -1.58E+00 5.58E+00 1 5 8
213 1176 39 4.10E-01 2.66E+00 -5.76E-01 5.81E+00 1 5 8
214 1176 39 4.10E-01 1.71E+00 -1.80E+00 5.16E+00 1 5 8
215 1177 38 -8.20E-01 -3.36E+00 -9.70E+00 2.29E+00 3 7 11
216 1177 39 4.10E-01 -3.40E+00 -1.07E+01 2.44E+00 3 7 11
217 1177 39 4.10E-01 -3.56E+00 -9.29E+00 3.20E+00 3 7 11
218 1178 38 -8.20E-01 -6.75E+00 2.11E+00 1.04E+01 3 7 11
219 1178 39 4.10E-01 -7.29E+00 2.19E+00 9.49E+00 3 7 11
220 1178 39 4.10E-01 -6.11E+00 2.91E+00 1.04E+01 3 7 11
221 1179 38 -8.20E-01 2.27E+00 -3.02E+00 -6.58E+00 1 5 10
222 1179 39 4.10E-01 2.25E+00 -2.18E+00 -7.12E+00 1 5 10
223 1179 39 4.10E-01 2.76E+00 -2.95E+00 -5.68E+00 1 5 10
224 1180 38 -8.20E-01 -8.56E+00 -3.38E+00 9.79E+00 2 6 9
225 1180 39 4.10E-01 -7.99E+00 -3.07E+00 9.01E+00 2 6 9
226 1180 39 4.10E-01 -9.33E+00 -2.65E+00 9.79E+00 2 6 9
227 1181 38 -8.20E-01 -2.74E+00 8.46E+00 -8.59E+00 2 6 11
228 1181 39 4.10E-01 -2.55E+00 9.46E+00 -8.49E+00 2 6 11
229 1181 39 4.10E-01 -2.81E+00 8.16E+00 -9.59E+00 2 6 11
230 1182 38 -8.20E-01 7.74E+00 5.48E+00 9.93E+00 0 6 10
231 1182 39 4.10E-01 7.10E+00 4.70E+00 9.97E+00 0 6 10
232 1182 39 4.10E-01 7.24E+00 6.19E+00 1.04E+01 0 6 10
233 1183 38 -8.20E-01 1.61E+00 -2.89E-02 1.56E+00 2 8 12
234 1183 39 4.10E-01 1.00E+00 4.13E-01 8.42E-01 2 8 12
235 1183 39 4.10E-01 1.10E+00 -1.23E-01 2.42E+00 2 8 12
236 1184 38 -8.20E-01 -8.58E-01 -6.89E+00 8.51E+00 1 9 13
237 1184 39 4.10E-01 -8.05E-01 -7.60E+00 9.32E+00 1 9 13
238 1184 39 4.10E-01 -2.95E-02 -7.06E+00 7.95E+00 1 9 13
239 1185 38 -8.20E-01 -3.39E-01 6.28E+00 -2.94E-01 0 4 10
240 1185 39 4.10E-01 -1.32E+00 6.48E+00 -7.06E-01 0 4 10
241 1185 39 4.10E-01 4.40E-02 7.13E+00 9.33E-02 0 4 10
242 1186 38 -8.20E-01 2.12E+00 8.04E+00 7.74E+00 0 6 11
243 1186 39 4.10E-01 1.48E+00 8.40E+00 8.46E+00 0 6 11
244 1186 39 4.10E-01 3.14E+00 8.23E+00 8.04E+00 0 6 11
245 1187 38 -8.20E-01 -3.67E+00 -8.72E+00 -7.24E+00 2 6 9
246 1187 39 4.10E-01 -2.93E+00 -8.04E+00 -7.59E+00 2 6 9