Created by charmm2lammps v1.8.1 on Tue Mar 29 15:10:58 CDT 2016; Missing atom line!

1429  atoms
961  bonds
514  angles
64  dihedrals
5  impropers

20  atom types
21  bond types
35  angle types
45  dihedral types
6  improper types

-12.12469     12.12469 xlo xhi
-12.12469     12.12469 ylo yhi
-12.12469     12.12469 zlo zhi

Masses

1      1.008  # HT
2    15.9994  # OT
3    15.9994  # OTH
4      1.008  # HTH
5      1.008  # H
6      1.008  # HB1
7      1.008  # HA2
8      1.008  # HA3
9     12.011  # C
10     12.011  # CT1
11     12.011  # CT2
12     12.011  # CT2A
13     12.011  # CT3
14     12.011  # CC
15     14.007  # NH1
16     15.999  # O
17     15.999  # OC
18     15.999  # OB
19     15.999  # OH1
20     12.011  # CD

Pair Coeffs

1          0          0          0          0  # HT
2  0.1554253   3.165492  0.1554253   3.165492  # OT
3  0.0986097   3.118507  0.0986097   3.118507  # OTH
4 4.0583e-05          0 4.0583e-05          0  # HTH
5      0.046  0.4000135      0.046  0.4000135  # H
6      0.022   2.351973      0.022   2.351973  # HB1
7      0.034   2.387609      0.034   2.387609  # HA2
8      0.024   2.387609      0.024   2.387609  # HA3
9       0.11   3.563595       0.11   3.563595  # C
10      0.032   3.563595       0.01   3.385415  # CT1
11      0.056   3.581413       0.01   3.385415  # CT2
12      0.056   3.581413       0.01   3.385415  # CT2A
13      0.078   3.634867       0.01   3.385415  # CT3
14       0.07   3.563595       0.07   3.563595  # CC
15        0.2   3.296325        0.2   2.761786  # NH1
16       0.12   3.029056       0.12   2.494516  # O
17       0.12   3.029056       0.12   3.029056  # OC
18       0.12   3.029056       0.12   2.494516  # OB
19     0.1521   3.153781     0.1521   3.153781  # OH1
20       0.07   3.563595       0.07   3.563595  # CD

Atoms

2 1 16 -0.51 0.0 0.0 0.0 # O
3 1 15 -0.47 0.0 0.0 0.0 # NH1
4 1 5 0.31 0.0 0.0 0.0 # H
5 1 13 -0.11 0.0 0.0 0.0 # CT3
6 1 8 0.09 0.0 0.0 0.0 # HA3
7 1 8 0.09 0.0 0.0 0.0 # HA3
8 1 8 0.09 0.0 0.0 0.0 # HA3
9 1 13 -0.27 0.0 0.0 0.0 # CT3
10 1 8 0.09 0.0 0.0 0.0 # HA3
11 1 8 0.09 0.0 0.0 0.0 # HA3
12 1 8 0.09 0.0 0.0 0.0 # HA3
13 1 9 0.51 0.0 0.0 0.0 # C
14 1 16 -0.51 0.0 0.0 0.0 # O
15 1 15 -0.47 0.0 0.0 0.0 # NH1
16 1 5 0.31 0.0 0.0 0.0 # H
17 1 10 0.07 0.0 0.0 0.0 # CT1
18 1 6 0.09 0.0 0.0 0.0 # HB1
19 1 12 -0.18 0.0 0.0 0.0 # CT2A
20 1 7 0.09 0.0 0.0 0.0 # HA2
21 1 7 0.09 0.0 0.0 0.0 # HA2
22 1 11 -0.28 0.0 0.0 0.0 # CT2
23 1 7 0.09 0.0 0.0 0.0 # HA2
24 1 7 0.09 0.0 0.0 0.0 # HA2
25 1 14 0.62 0.0 0.0 0.0 # CC
26 1 17 -0.76 0.0 0.0 0.0 # OC
27 1 17 -0.76 0.0 0.0 0.0 # OC
28 2 3 -0.32 0.0 0.0 0.0 # OTH
29 2 4 0.44 0.0 0.0 0.0 # HTH
30 2 4 0.44 0.0 0.0 0.0 # HTH
31 2 4 0.44 0.0 0.0 0.0 # HTH
32 3 2 -0.82 0.0 0.0 0.0 # OT
33 3 1 0.41 0.0 0.0 0.0 # HT
34 3 1 0.41 0.0 0.0 0.0 # HT
35 4 2 -0.82 0.0 0.0 0.0 # OT
36 4 1 0.41 0.0 0.0 0.0 # HT
37 4 1 0.41 0.0 0.0 0.0 # HT
38 5 2 -0.82 0.0 0.0 0.0 # OT
39 5 1 0.41 0.0 0.0 0.0 # HT
40 5 1 0.41 0.0 0.0 0.0 # HT
41 6 2 -0.82 0.0 0.0 0.0 # OT
42 6 1 0.41 0.0 0.0 0.0 # HT
43 6 1 0.41 0.0 0.0 0.0 # HT
44 7 2 -0.82 0.0 0.0 0.0 # OT
45 7 1 0.41 0.0 0.0 0.0 # HT
46 7 1 0.41 0.0 0.0 0.0 # HT
47 8 2 -0.82 0.0 0.0 0.0 # OT
48 8 1 0.41 0.0 0.0 0.0 # HT
49 8 1 0.41 0.0 0.0 0.0 # HT
50 9 2 -0.82 0.0 0.0 0.0 # OT
51 9 1 0.41 0.0 0.0 0.0 # HT
52 9 1 0.41 0.0 0.0 0.0 # HT
53 10 2 -0.82 0.0 0.0 0.0 # OT
54 10 1 0.41 0.0 0.0 0.0 # HT
55 10 1 0.41 0.0 0.0 0.0 # HT
56 11 2 -0.82 0.0 0.0 0.0 # OT
57 11 1 0.41 0.0 0.0 0.0 # HT
58 11 1 0.41 0.0 0.0 0.0 # HT
59 12 2 -0.82 0.0 0.0 0.0 # OT
60 12 1 0.41 0.0 0.0 0.0 # HT
61 12 1 0.41 0.0 0.0 0.0 # HT
62 13 2 -0.82 0.0 0.0 0.0 # OT
63 13 1 0.41 0.0 0.0 0.0 # HT
64 13 1 0.41 0.0 0.0 0.0 # HT
65 14 2 -0.82 0.0 0.0 0.0 # OT
66 14 1 0.41 0.0 0.0 0.0 # HT
67 14 1 0.41 0.0 0.0 0.0 # HT
68 15 2 -0.82 0.0 0.0 0.0 # OT
69 15 1 0.41 0.0 0.0 0.0 # HT
70 15 1 0.41 0.0 0.0 0.0 # HT
71 16 2 -0.82 0.0 0.0 0.0 # OT
72 16 1 0.41 0.0 0.0 0.0 # HT
73 16 1 0.41 0.0 0.0 0.0 # HT
74 17 2 -0.82 0.0 0.0 0.0 # OT
75 17 1 0.41 0.0 0.0 0.0 # HT
76 17 1 0.41 0.0 0.0 0.0 # HT
77 18 2 -0.82 0.0 0.0 0.0 # OT
78 18 1 0.41 0.0 0.0 0.0 # HT
79 18 1 0.41 0.0 0.0 0.0 # HT
80 19 2 -0.82 0.0 0.0 0.0 # OT
81 19 1 0.41 0.0 0.0 0.0 # HT
82 19 1 0.41 0.0 0.0 0.0 # HT
83 20 2 -0.82 0.0 0.0 0.0 # OT
84 20 1 0.41 0.0 0.0 0.0 # HT
85 20 1 0.41 0.0 0.0 0.0 # HT
86 21 2 -0.82 0.0 0.0 0.0 # OT
87 21 1 0.41 0.0 0.0 0.0 # HT
88 21 1 0.41 0.0 0.0 0.0 # HT
89 22 2 -0.82 0.0 0.0 0.0 # OT
90 22 1 0.41 0.0 0.0 0.0 # HT
91 22 1 0.41 0.0 0.0 0.0 # HT
92 23 2 -0.82 0.0 0.0 0.0 # OT
93 23 1 0.41 0.0 0.0 0.0 # HT
94 23 1 0.41 0.0 0.0 0.0 # HT
95 24 2 -0.82 0.0 0.0 0.0 # OT
96 24 1 0.41 0.0 0.0 0.0 # HT
97 24 1 0.41 0.0 0.0 0.0 # HT
98 25 2 -0.82 0.0 0.0 0.0 # OT
99 25 1 0.41 0.0 0.0 0.0 # HT
100 25 1 0.41 0.0 0.0 0.0 # HT
101 26 2 -0.82 0.0 0.0 0.0 # OT
102 26 1 0.41 0.0 0.0 0.0 # HT
103 26 1 0.41 0.0 0.0 0.0 # HT
104 27 2 -0.82 0.0 0.0 0.0 # OT
105 27 1 0.41 0.0 0.0 0.0 # HT
106 27 1 0.41 0.0 0.0 0.0 # HT
107 28 2 -0.82 0.0 0.0 0.0 # OT
108 28 1 0.41 0.0 0.0 0.0 # HT
109 28 1 0.41 0.0 0.0 0.0 # HT
110 29 2 -0.82 0.0 0.0 0.0 # OT
111 29 1 0.41 0.0 0.0 0.0 # HT
112 29 1 0.41 0.0 0.0 0.0 # HT
113 30 2 -0.82 0.0 0.0 0.0 # OT
114 30 1 0.41 0.0 0.0 0.0 # HT
115 30 1 0.41 0.0 0.0 0.0 # HT
116 31 2 -0.82 0.0 0.0 0.0 # OT
117 31 1 0.41 0.0 0.0 0.0 # HT
118 31 1 0.41 0.0 0.0 0.0 # HT
119 32 2 -0.82 0.0 0.0 0.0 # OT
120 32 1 0.41 0.0 0.0 0.0 # HT
121 32 1 0.41 0.0 0.0 0.0 # HT
122 33 2 -0.82 0.0 0.0 0.0 # OT
123 33 1 0.41 0.0 0.0 0.0 # HT
124 33 1 0.41 0.0 0.0 0.0 # HT
125 34 2 -0.82 0.0 0.0 0.0 # OT
126 34 1 0.41 0.0 0.0 0.0 # HT
127 34 1 0.41 0.0 0.0 0.0 # HT
128 35 2 -0.82 0.0 0.0 0.0 # OT
129 35 1 0.41 0.0 0.0 0.0 # HT
130 35 1 0.41 0.0 0.0 0.0 # HT
131 36 2 -0.82 0.0 0.0 0.0 # OT
132 36 1 0.41 0.0 0.0 0.0 # HT
133 36 1 0.41 0.0 0.0 0.0 # HT
134 37 2 -0.82 0.0 0.0 0.0 # OT
135 37 1 0.41 0.0 0.0 0.0 # HT
136 37 1 0.41 0.0 0.0 0.0 # HT
137 38 2 -0.82 0.0 0.0 0.0 # OT
138 38 1 0.41 0.0 0.0 0.0 # HT
139 38 1 0.41 0.0 0.0 0.0 # HT
140 39 2 -0.82 0.0 0.0 0.0 # OT
141 39 1 0.41 0.0 0.0 0.0 # HT
142 39 1 0.41 0.0 0.0 0.0 # HT
143 40 2 -0.82 0.0 0.0 0.0 # OT
144 40 1 0.41 0.0 0.0 0.0 # HT
145 40 1 0.41 0.0 0.0 0.0 # HT
146 41 2 -0.82 0.0 0.0 0.0 # OT
147 41 1 0.41 0.0 0.0 0.0 # HT
148 41 1 0.41 0.0 0.0 0.0 # HT
149 42 2 -0.82 0.0 0.0 0.0 # OT
150 42 1 0.41 0.0 0.0 0.0 # HT
151 42 1 0.41 0.0 0.0 0.0 # HT
152 43 2 -0.82 0.0 0.0 0.0 # OT
153 43 1 0.41 0.0 0.0 0.0 # HT
154 43 1 0.41 0.0 0.0 0.0 # HT
155 44 2 -0.82 0.0 0.0 0.0 # OT
156 44 1 0.41 0.0 0.0 0.0 # HT
157 44 1 0.41 0.0 0.0 0.0 # HT
158 45 2 -0.82 0.0 0.0 0.0 # OT
159 45 1 0.41 0.0 0.0 0.0 # HT
160 45 1 0.41 0.0 0.0 0.0 # HT
161 46 2 -0.82 0.0 0.0 0.0 # OT
162 46 1 0.41 0.0 0.0 0.0 # HT
163 46 1 0.41 0.0 0.0 0.0 # HT
164 47 2 -0.82 0.0 0.0 0.0 # OT
165 47 1 0.41 0.0 0.0 0.0 # HT
166 47 1 0.41 0.0 0.0 0.0 # HT
167 48 2 -0.82 0.0 0.0 0.0 # OT
168 48 1 0.41 0.0 0.0 0.0 # HT
169 48 1 0.41 0.0 0.0 0.0 # HT
170 49 2 -0.82 0.0 0.0 0.0 # OT
171 49 1 0.41 0.0 0.0 0.0 # HT
172 49 1 0.41 0.0 0.0 0.0 # HT
173 50 2 -0.82 0.0 0.0 0.0 # OT
174 50 1 0.41 0.0 0.0 0.0 # HT
175 50 1 0.41 0.0 0.0 0.0 # HT
176 51 2 -0.82 0.0 0.0 0.0 # OT
177 51 1 0.41 0.0 0.0 0.0 # HT
178 51 1 0.41 0.0 0.0 0.0 # HT
179 52 2 -0.82 0.0 0.0 0.0 # OT
180 52 1 0.41 0.0 0.0 0.0 # HT
181 52 1 0.41 0.0 0.0 0.0 # HT
182 53 2 -0.82 0.0 0.0 0.0 # OT
183 53 1 0.41 0.0 0.0 0.0 # HT
184 53 1 0.41 0.0 0.0 0.0 # HT
185 54 2 -0.82 0.0 0.0 0.0 # OT
186 54 1 0.41 0.0 0.0 0.0 # HT
187 54 1 0.41 0.0 0.0 0.0 # HT
188 55 2 -0.82 0.0 0.0 0.0 # OT
189 55 1 0.41 0.0 0.0 0.0 # HT
190 55 1 0.41 0.0 0.0 0.0 # HT
191 56 2 -0.82 0.0 0.0 0.0 # OT
192 56 1 0.41 0.0 0.0 0.0 # HT
193 56 1 0.41 0.0 0.0 0.0 # HT
194 57 2 -0.82 0.0 0.0 0.0 # OT
195 57 1 0.41 0.0 0.0 0.0 # HT
196 57 1 0.41 0.0 0.0 0.0 # HT
197 58 2 -0.82 0.0 0.0 0.0 # OT
198 58 1 0.41 0.0 0.0 0.0 # HT
199 58 1 0.41 0.0 0.0 0.0 # HT
200 59 2 -0.82 0.0 0.0 0.0 # OT
201 59 1 0.41 0.0 0.0 0.0 # HT
202 59 1 0.41 0.0 0.0 0.0 # HT
203 60 2 -0.82 0.0 0.0 0.0 # OT
204 60 1 0.41 0.0 0.0 0.0 # HT
205 60 1 0.41 0.0 0.0 0.0 # HT
206 61 2 -0.82 0.0 0.0 0.0 # OT
207 61 1 0.41 0.0 0.0 0.0 # HT
208 61 1 0.41 0.0 0.0 0.0 # HT
209 62 2 -0.82 0.0 0.0 0.0 # OT
210 62 1 0.41 0.0 0.0 0.0 # HT
211 62 1 0.41 0.0 0.0 0.0 # HT
212 63 2 -0.82 0.0 0.0 0.0 # OT
213 63 1 0.41 0.0 0.0 0.0 # HT
214 63 1 0.41 0.0 0.0 0.0 # HT
215 64 2 -0.82 0.0 0.0 0.0 # OT
216 64 1 0.41 0.0 0.0 0.0 # HT
217 64 1 0.41 0.0 0.0 0.0 # HT
218 65 2 -0.82 0.0 0.0 0.0 # OT
219 65 1 0.41 0.0 0.0 0.0 # HT
220 65 1 0.41 0.0 0.0 0.0 # HT
221 66 2 -0.82 0.0 0.0 0.0 # OT
222 66 1 0.41 0.0 0.0 0.0 # HT
223 66 1 0.41 0.0 0.0 0.0 # HT
224 67 2 -0.82 0.0 0.0 0.0 # OT
225 67 1 0.41 0.0 0.0 0.0 # HT
226 67 1 0.41 0.0 0.0 0.0 # HT
227 68 2 -0.82 0.0 0.0 0.0 # OT
228 68 1 0.41 0.0 0.0 0.0 # HT
229 68 1 0.41 0.0 0.0 0.0 # HT
230 69 2 -0.82 0.0 0.0 0.0 # OT
231 69 1 0.41 0.0 0.0 0.0 # HT
232 69 1 0.41 0.0 0.0 0.0 # HT
233 70 2 -0.82 0.0 0.0 0.0 # OT
234 70 1 0.41 0.0 0.0 0.0 # HT
235 70 1 0.41 0.0 0.0 0.0 # HT
236 71 2 -0.82 0.0 0.0 0.0 # OT
237 71 1 0.41 0.0 0.0 0.0 # HT
238 71 1 0.41 0.0 0.0 0.0 # HT
239 72 2 -0.82 0.0 0.0 0.0 # OT
240 72 1 0.41 0.0 0.0 0.0 # HT
241 72 1 0.41 0.0 0.0 0.0 # HT
242 73 2 -0.82 0.0 0.0 0.0 # OT
243 73 1 0.41 0.0 0.0 0.0 # HT
244 73 1 0.41 0.0 0.0 0.0 # HT
245 74 2 -0.82 0.0 0.0 0.0 # OT
246 74 1 0.41 0.0 0.0 0.0 # HT
247 74 1 0.41 0.0 0.0 0.0 # HT
248 75 2 -0.82 0.0 0.0 0.0 # OT
249 75 1 0.41 0.0 0.0 0.0 # HT
250 75 1 0.41 0.0 0.0 0.0 # HT
251 76 2 -0.82 0.0 0.0 0.0 # OT
252 76 1 0.41 0.0 0.0 0.0 # HT
253 76 1 0.41 0.0 0.0 0.0 # HT
254 77 2 -0.82 0.0 0.0 0.0 # OT
255 77 1 0.41 0.0 0.0 0.0 # HT
256 77 1 0.41 0.0 0.0 0.0 # HT
257 78 2 -0.82 0.0 0.0 0.0 # OT
258 78 1 0.41 0.0 0.0 0.0 # HT
259 78 1 0.41 0.0 0.0 0.0 # HT
260 79 2 -0.82 0.0 0.0 0.0 # OT
261 79 1 0.41 0.0 0.0 0.0 # HT
262 79 1 0.41 0.0 0.0 0.0 # HT
263 80 2 -0.82 0.0 0.0 0.0 # OT
264 80 1 0.41 0.0 0.0 0.0 # HT
265 80 1 0.41 0.0 0.0 0.0 # HT
266 81 2 -0.82 0.0 0.0 0.0 # OT
267 81 1 0.41 0.0 0.0 0.0 # HT
268 81 1 0.41 0.0 0.0 0.0 # HT
269 82 2 -0.82 0.0 0.0 0.0 # OT
270 82 1 0.41 0.0 0.0 0.0 # HT
271 82 1 0.41 0.0 0.0 0.0 # HT
272 83 2 -0.82 0.0 0.0 0.0 # OT
273 83 1 0.41 0.0 0.0 0.0 # HT
274 83 1 0.41 0.0 0.0 0.0 # HT
275 84 2 -0.82 0.0 0.0 0.0 # OT
276 84 1 0.41 0.0 0.0 0.0 # HT
277 84 1 0.41 0.0 0.0 0.0 # HT
278 85 2 -0.82 0.0 0.0 0.0 # OT
279 85 1 0.41 0.0 0.0 0.0 # HT
280 85 1 0.41 0.0 0.0 0.0 # HT
281 86 2 -0.82 0.0 0.0 0.0 # OT
282 86 1 0.41 0.0 0.0 0.0 # HT
283 86 1 0.41 0.0 0.0 0.0 # HT
284 87 2 -0.82 0.0 0.0 0.0 # OT
285 87 1 0.41 0.0 0.0 0.0 # HT
286 87 1 0.41 0.0 0.0 0.0 # HT
287 88 2 -0.82 0.0 0.0 0.0 # OT
288 88 1 0.41 0.0 0.0 0.0 # HT
289 88 1 0.41 0.0 0.0 0.0 # HT
290 89 2 -0.82 0.0 0.0 0.0 # OT
291 89 1 0.41 0.0 0.0 0.0 # HT
292 89 1 0.41 0.0 0.0 0.0 # HT
293 90 2 -0.82 0.0 0.0 0.0 # OT
294 90 1 0.41 0.0 0.0 0.0 # HT
295 90 1 0.41 0.0 0.0 0.0 # HT
296 91 2 -0.82 0.0 0.0 0.0 # OT
297 91 1 0.41 0.0 0.0 0.0 # HT
298 91 1 0.41 0.0 0.0 0.0 # HT
299 92 2 -0.82 0.0 0.0 0.0 # OT
300 92 1 0.41 0.0 0.0 0.0 # HT
301 92 1 0.41 0.0 0.0 0.0 # HT
302 93 2 -0.82 0.0 0.0 0.0 # OT
303 93 1 0.41 0.0 0.0 0.0 # HT
304 93 1 0.41 0.0 0.0 0.0 # HT
305 94 2 -0.82 0.0 0.0 0.0 # OT
306 94 1 0.41 0.0 0.0 0.0 # HT
307 94 1 0.41 0.0 0.0 0.0 # HT
308 95 2 -0.82 0.0 0.0 0.0 # OT
309 95 1 0.41 0.0 0.0 0.0 # HT
310 95 1 0.41 0.0 0.0 0.0 # HT
311 96 2 -0.82 0.0 0.0 0.0 # OT
312 96 1 0.41 0.0 0.0 0.0 # HT
313 96 1 0.41 0.0 0.0 0.0 # HT
314 97 2 -0.82 0.0 0.0 0.0 # OT
315 97 1 0.41 0.0 0.0 0.0 # HT
316 97 1 0.41 0.0 0.0 0.0 # HT
317 98 2 -0.82 0.0 0.0 0.0 # OT
318 98 1 0.41 0.0 0.0 0.0 # HT
319 98 1 0.41 0.0 0.0 0.0 # HT
320 99 2 -0.82 0.0 0.0 0.0 # OT
321 99 1 0.41 0.0 0.0 0.0 # HT
322 99 1 0.41 0.0 0.0 0.0 # HT
323 100 2 -0.82 0.0 0.0 0.0 # OT
324 100 1 0.41 0.0 0.0 0.0 # HT
325 100 1 0.41 0.0 0.0 0.0 # HT
326 101 2 -0.82 0.0 0.0 0.0 # OT
327 101 1 0.41 0.0 0.0 0.0 # HT
328 101 1 0.41 0.0 0.0 0.0 # HT
329 102 2 -0.82 0.0 0.0 0.0 # OT
330 102 1 0.41 0.0 0.0 0.0 # HT
331 102 1 0.41 0.0 0.0 0.0 # HT
332 103 2 -0.82 0.0 0.0 0.0 # OT
333 103 1 0.41 0.0 0.0 0.0 # HT
334 103 1 0.41 0.0 0.0 0.0 # HT
335 104 2 -0.82 0.0 0.0 0.0 # OT
336 104 1 0.41 0.0 0.0 0.0 # HT
337 104 1 0.41 0.0 0.0 0.0 # HT
338 105 2 -0.82 0.0 0.0 0.0 # OT
339 105 1 0.41 0.0 0.0 0.0 # HT
340 105 1 0.41 0.0 0.0 0.0 # HT
341 106 2 -0.82 0.0 0.0 0.0 # OT
342 106 1 0.41 0.0 0.0 0.0 # HT
343 106 1 0.41 0.0 0.0 0.0 # HT
344 107 2 -0.82 0.0 0.0 0.0 # OT
345 107 1 0.41 0.0 0.0 0.0 # HT
346 107 1 0.41 0.0 0.0 0.0 # HT
347 108 2 -0.82 0.0 0.0 0.0 # OT
348 108 1 0.41 0.0 0.0 0.0 # HT
349 108 1 0.41 0.0 0.0 0.0 # HT
350 109 2 -0.82 0.0 0.0 0.0 # OT
351 109 1 0.41 0.0 0.0 0.0 # HT
352 109 1 0.41 0.0 0.0 0.0 # HT
353 110 2 -0.82 0.0 0.0 0.0 # OT
354 110 1 0.41 0.0 0.0 0.0 # HT
355 110 1 0.41 0.0 0.0 0.0 # HT
356 111 2 -0.82 0.0 0.0 0.0 # OT
357 111 1 0.41 0.0 0.0 0.0 # HT
358 111 1 0.41 0.0 0.0 0.0 # HT
359 112 2 -0.82 0.0 0.0 0.0 # OT
360 112 1 0.41 0.0 0.0 0.0 # HT
361 112 1 0.41 0.0 0.0 0.0 # HT
362 113 2 -0.82 0.0 0.0 0.0 # OT
363 113 1 0.41 0.0 0.0 0.0 # HT
364 113 1 0.41 0.0 0.0 0.0 # HT
365 114 2 -0.82 0.0 0.0 0.0 # OT
366 114 1 0.41 0.0 0.0 0.0 # HT
367 114 1 0.41 0.0 0.0 0.0 # HT
368 115 2 -0.82 0.0 0.0 0.0 # OT
369 115 1 0.41 0.0 0.0 0.0 # HT
370 115 1 0.41 0.0 0.0 0.0 # HT
371 116 2 -0.82 0.0 0.0 0.0 # OT
372 116 1 0.41 0.0 0.0 0.0 # HT
373 116 1 0.41 0.0 0.0 0.0 # HT
374 117 2 -0.82 0.0 0.0 0.0 # OT
375 117 1 0.41 0.0 0.0 0.0 # HT
376 117 1 0.41 0.0 0.0 0.0 # HT
377 118 2 -0.82 0.0 0.0 0.0 # OT
378 118 1 0.41 0.0 0.0 0.0 # HT
379 118 1 0.41 0.0 0.0 0.0 # HT
380 119 2 -0.82 0.0 0.0 0.0 # OT
381 119 1 0.41 0.0 0.0 0.0 # HT
382 119 1 0.41 0.0 0.0 0.0 # HT
383 120 2 -0.82 0.0 0.0 0.0 # OT
384 120 1 0.41 0.0 0.0 0.0 # HT
385 120 1 0.41 0.0 0.0 0.0 # HT
386 121 2 -0.82 0.0 0.0 0.0 # OT
387 121 1 0.41 0.0 0.0 0.0 # HT
388 121 1 0.41 0.0 0.0 0.0 # HT
389 122 2 -0.82 0.0 0.0 0.0 # OT
390 122 1 0.41 0.0 0.0 0.0 # HT
391 122 1 0.41 0.0 0.0 0.0 # HT
392 123 2 -0.82 0.0 0.0 0.0 # OT
393 123 1 0.41 0.0 0.0 0.0 # HT
394 123 1 0.41 0.0 0.0 0.0 # HT
395 124 2 -0.82 0.0 0.0 0.0 # OT
396 124 1 0.41 0.0 0.0 0.0 # HT
397 124 1 0.41 0.0 0.0 0.0 # HT
398 125 2 -0.82 0.0 0.0 0.0 # OT
399 125 1 0.41 0.0 0.0 0.0 # HT
400 125 1 0.41 0.0 0.0 0.0 # HT
401 126 2 -0.82 0.0 0.0 0.0 # OT
402 126 1 0.41 0.0 0.0 0.0 # HT
403 126 1 0.41 0.0 0.0 0.0 # HT
404 127 2 -0.82 0.0 0.0 0.0 # OT
405 127 1 0.41 0.0 0.0 0.0 # HT
406 127 1 0.41 0.0 0.0 0.0 # HT
407 128 2 -0.82 0.0 0.0 0.0 # OT
408 128 1 0.41 0.0 0.0 0.0 # HT
409 128 1 0.41 0.0 0.0 0.0 # HT
410 129 2 -0.82 0.0 0.0 0.0 # OT
411 129 1 0.41 0.0 0.0 0.0 # HT
412 129 1 0.41 0.0 0.0 0.0 # HT
413 130 2 -0.82 0.0 0.0 0.0 # OT
414 130 1 0.41 0.0 0.0 0.0 # HT
415 130 1 0.41 0.0 0.0 0.0 # HT
416 131 2 -0.82 0.0 0.0 0.0 # OT
417 131 1 0.41 0.0 0.0 0.0 # HT
418 131 1 0.41 0.0 0.0 0.0 # HT
419 132 2 -0.82 0.0 0.0 0.0 # OT
420 132 1 0.41 0.0 0.0 0.0 # HT
421 132 1 0.41 0.0 0.0 0.0 # HT
422 133 2 -0.82 0.0 0.0 0.0 # OT
423 133 1 0.41 0.0 0.0 0.0 # HT
424 133 1 0.41 0.0 0.0 0.0 # HT
425 134 2 -0.82 0.0 0.0 0.0 # OT
426 134 1 0.41 0.0 0.0 0.0 # HT
427 134 1 0.41 0.0 0.0 0.0 # HT
428 135 2 -0.82 0.0 0.0 0.0 # OT
429 135 1 0.41 0.0 0.0 0.0 # HT
430 135 1 0.41 0.0 0.0 0.0 # HT
431 136 2 -0.82 0.0 0.0 0.0 # OT
432 136 1 0.41 0.0 0.0 0.0 # HT
433 136 1 0.41 0.0 0.0 0.0 # HT
434 137 2 -0.82 0.0 0.0 0.0 # OT
435 137 1 0.41 0.0 0.0 0.0 # HT
436 137 1 0.41 0.0 0.0 0.0 # HT
437 138 2 -0.82 0.0 0.0 0.0 # OT
438 138 1 0.41 0.0 0.0 0.0 # HT
439 138 1 0.41 0.0 0.0 0.0 # HT
440 139 2 -0.82 0.0 0.0 0.0 # OT
441 139 1 0.41 0.0 0.0 0.0 # HT
442 139 1 0.41 0.0 0.0 0.0 # HT
443 140 2 -0.82 0.0 0.0 0.0 # OT
444 140 1 0.41 0.0 0.0 0.0 # HT
445 140 1 0.41 0.0 0.0 0.0 # HT
446 141 2 -0.82 0.0 0.0 0.0 # OT
447 141 1 0.41 0.0 0.0 0.0 # HT
448 141 1 0.41 0.0 0.0 0.0 # HT
449 142 2 -0.82 0.0 0.0 0.0 # OT
450 142 1 0.41 0.0 0.0 0.0 # HT
451 142 1 0.41 0.0 0.0 0.0 # HT
452 143 2 -0.82 0.0 0.0 0.0 # OT
453 143 1 0.41 0.0 0.0 0.0 # HT
454 143 1 0.41 0.0 0.0 0.0 # HT
455 144 2 -0.82 0.0 0.0 0.0 # OT
456 144 1 0.41 0.0 0.0 0.0 # HT
457 144 1 0.41 0.0 0.0 0.0 # HT
458 145 2 -0.82 0.0 0.0 0.0 # OT
459 145 1 0.41 0.0 0.0 0.0 # HT
460 145 1 0.41 0.0 0.0 0.0 # HT
461 146 2 -0.82 0.0 0.0 0.0 # OT
462 146 1 0.41 0.0 0.0 0.0 # HT
463 146 1 0.41 0.0 0.0 0.0 # HT
464 147 2 -0.82 0.0 0.0 0.0 # OT
465 147 1 0.41 0.0 0.0 0.0 # HT
466 147 1 0.41 0.0 0.0 0.0 # HT
467 148 2 -0.82 0.0 0.0 0.0 # OT
468 148 1 0.41 0.0 0.0 0.0 # HT
469 148 1 0.41 0.0 0.0 0.0 # HT
470 149 2 -0.82 0.0 0.0 0.0 # OT
471 149 1 0.41 0.0 0.0 0.0 # HT
472 149 1 0.41 0.0 0.0 0.0 # HT
473 150 2 -0.82 0.0 0.0 0.0 # OT
474 150 1 0.41 0.0 0.0 0.0 # HT
475 150 1 0.41 0.0 0.0 0.0 # HT
476 151 2 -0.82 0.0 0.0 0.0 # OT
477 151 1 0.41 0.0 0.0 0.0 # HT
478 151 1 0.41 0.0 0.0 0.0 # HT
479 152 2 -0.82 0.0 0.0 0.0 # OT
480 152 1 0.41 0.0 0.0 0.0 # HT
481 152 1 0.41 0.0 0.0 0.0 # HT
482 153 2 -0.82 0.0 0.0 0.0 # OT
483 153 1 0.41 0.0 0.0 0.0 # HT
484 153 1 0.41 0.0 0.0 0.0 # HT
485 154 2 -0.82 0.0 0.0 0.0 # OT
486 154 1 0.41 0.0 0.0 0.0 # HT
487 154 1 0.41 0.0 0.0 0.0 # HT
488 155 2 -0.82 0.0 0.0 0.0 # OT
489 155 1 0.41 0.0 0.0 0.0 # HT
490 155 1 0.41 0.0 0.0 0.0 # HT
491 156 2 -0.82 0.0 0.0 0.0 # OT
492 156 1 0.41 0.0 0.0 0.0 # HT
493 156 1 0.41 0.0 0.0 0.0 # HT
494 157 2 -0.82 0.0 0.0 0.0 # OT
495 157 1 0.41 0.0 0.0 0.0 # HT
496 157 1 0.41 0.0 0.0 0.0 # HT
497 158 2 -0.82 0.0 0.0 0.0 # OT
498 158 1 0.41 0.0 0.0 0.0 # HT
499 158 1 0.41 0.0 0.0 0.0 # HT
500 159 2 -0.82 0.0 0.0 0.0 # OT
501 159 1 0.41 0.0 0.0 0.0 # HT
502 159 1 0.41 0.0 0.0 0.0 # HT
503 160 2 -0.82 0.0 0.0 0.0 # OT
504 160 1 0.41 0.0 0.0 0.0 # HT
505 160 1 0.41 0.0 0.0 0.0 # HT
506 161 2 -0.82 0.0 0.0 0.0 # OT
507 161 1 0.41 0.0 0.0 0.0 # HT
508 161 1 0.41 0.0 0.0 0.0 # HT
509 162 2 -0.82 0.0 0.0 0.0 # OT
510 162 1 0.41 0.0 0.0 0.0 # HT
511 162 1 0.41 0.0 0.0 0.0 # HT
512 163 2 -0.82 0.0 0.0 0.0 # OT
513 163 1 0.41 0.0 0.0 0.0 # HT
514 163 1 0.41 0.0 0.0 0.0 # HT
515 164 2 -0.82 0.0 0.0 0.0 # OT
516 164 1 0.41 0.0 0.0 0.0 # HT
517 164 1 0.41 0.0 0.0 0.0 # HT
518 165 2 -0.82 0.0 0.0 0.0 # OT
519 165 1 0.41 0.0 0.0 0.0 # HT
520 165 1 0.41 0.0 0.0 0.0 # HT
521 166 2 -0.82 0.0 0.0 0.0 # OT
522 166 1 0.41 0.0 0.0 0.0 # HT
523 166 1 0.41 0.0 0.0 0.0 # HT
524 167 2 -0.82 0.0 0.0 0.0 # OT
525 167 1 0.41 0.0 0.0 0.0 # HT
526 167 1 0.41 0.0 0.0 0.0 # HT
527 168 2 -0.82 0.0 0.0 0.0 # OT
528 168 1 0.41 0.0 0.0 0.0 # HT
529 168 1 0.41 0.0 0.0 0.0 # HT
530 169 2 -0.82 0.0 0.0 0.0 # OT
531 169 1 0.41 0.0 0.0 0.0 # HT
532 169 1 0.41 0.0 0.0 0.0 # HT
533 170 2 -0.82 0.0 0.0 0.0 # OT
534 170 1 0.41 0.0 0.0 0.0 # HT
535 170 1 0.41 0.0 0.0 0.0 # HT
536 171 2 -0.82 0.0 0.0 0.0 # OT
537 171 1 0.41 0.0 0.0 0.0 # HT
538 171 1 0.41 0.0 0.0 0.0 # HT
539 172 2 -0.82 0.0 0.0 0.0 # OT
540 172 1 0.41 0.0 0.0 0.0 # HT
541 172 1 0.41 0.0 0.0 0.0 # HT
542 173 2 -0.82 0.0 0.0 0.0 # OT
543 173 1 0.41 0.0 0.0 0.0 # HT
544 173 1 0.41 0.0 0.0 0.0 # HT
545 174 2 -0.82 0.0 0.0 0.0 # OT
546 174 1 0.41 0.0 0.0 0.0 # HT
547 174 1 0.41 0.0 0.0 0.0 # HT
548 175 2 -0.82 0.0 0.0 0.0 # OT
549 175 1 0.41 0.0 0.0 0.0 # HT
550 175 1 0.41 0.0 0.0 0.0 # HT
551 176 2 -0.82 0.0 0.0 0.0 # OT
552 176 1 0.41 0.0 0.0 0.0 # HT
553 176 1 0.41 0.0 0.0 0.0 # HT
554 177 2 -0.82 0.0 0.0 0.0 # OT
555 177 1 0.41 0.0 0.0 0.0 # HT
556 177 1 0.41 0.0 0.0 0.0 # HT
557 178 2 -0.82 0.0 0.0 0.0 # OT
558 178 1 0.41 0.0 0.0 0.0 # HT
559 178 1 0.41 0.0 0.0 0.0 # HT
560 179 2 -0.82 0.0 0.0 0.0 # OT
561 179 1 0.41 0.0 0.0 0.0 # HT
562 179 1 0.41 0.0 0.0 0.0 # HT
563 180 2 -0.82 0.0 0.0 0.0 # OT
564 180 1 0.41 0.0 0.0 0.0 # HT
565 180 1 0.41 0.0 0.0 0.0 # HT
566 181 2 -0.82 0.0 0.0 0.0 # OT
567 181 1 0.41 0.0 0.0 0.0 # HT
568 181 1 0.41 0.0 0.0 0.0 # HT
569 182 2 -0.82 0.0 0.0 0.0 # OT
570 182 1 0.41 0.0 0.0 0.0 # HT
571 182 1 0.41 0.0 0.0 0.0 # HT
572 183 2 -0.82 0.0 0.0 0.0 # OT
573 183 1 0.41 0.0 0.0 0.0 # HT
574 183 1 0.41 0.0 0.0 0.0 # HT
575 184 2 -0.82 0.0 0.0 0.0 # OT
576 184 1 0.41 0.0 0.0 0.0 # HT
577 184 1 0.41 0.0 0.0 0.0 # HT
578 185 2 -0.82 0.0 0.0 0.0 # OT
579 185 1 0.41 0.0 0.0 0.0 # HT
580 185 1 0.41 0.0 0.0 0.0 # HT
581 186 2 -0.82 0.0 0.0 0.0 # OT
582 186 1 0.41 0.0 0.0 0.0 # HT
583 186 1 0.41 0.0 0.0 0.0 # HT
584 187 2 -0.82 0.0 0.0 0.0 # OT
585 187 1 0.41 0.0 0.0 0.0 # HT
586 187 1 0.41 0.0 0.0 0.0 # HT
587 188 2 -0.82 0.0 0.0 0.0 # OT
588 188 1 0.41 0.0 0.0 0.0 # HT
589 188 1 0.41 0.0 0.0 0.0 # HT
590 189 2 -0.82 0.0 0.0 0.0 # OT
591 189 1 0.41 0.0 0.0 0.0 # HT
592 189 1 0.41 0.0 0.0 0.0 # HT
593 190 2 -0.82 0.0 0.0 0.0 # OT
594 190 1 0.41 0.0 0.0 0.0 # HT
595 190 1 0.41 0.0 0.0 0.0 # HT
596 191 2 -0.82 0.0 0.0 0.0 # OT
597 191 1 0.41 0.0 0.0 0.0 # HT
598 191 1 0.41 0.0 0.0 0.0 # HT
599 192 2 -0.82 0.0 0.0 0.0 # OT
600 192 1 0.41 0.0 0.0 0.0 # HT
601 192 1 0.41 0.0 0.0 0.0 # HT
602 193 2 -0.82 0.0 0.0 0.0 # OT
603 193 1 0.41 0.0 0.0 0.0 # HT
604 193 1 0.41 0.0 0.0 0.0 # HT
605 194 2 -0.82 0.0 0.0 0.0 # OT
606 194 1 0.41 0.0 0.0 0.0 # HT
607 194 1 0.41 0.0 0.0 0.0 # HT
608 195 2 -0.82 0.0 0.0 0.0 # OT
609 195 1 0.41 0.0 0.0 0.0 # HT
610 195 1 0.41 0.0 0.0 0.0 # HT
611 196 2 -0.82 0.0 0.0 0.0 # OT
612 196 1 0.41 0.0 0.0 0.0 # HT
613 196 1 0.41 0.0 0.0 0.0 # HT
614 197 2 -0.82 0.0 0.0 0.0 # OT
615 197 1 0.41 0.0 0.0 0.0 # HT
616 197 1 0.41 0.0 0.0 0.0 # HT
617 198 2 -0.82 0.0 0.0 0.0 # OT
618 198 1 0.41 0.0 0.0 0.0 # HT
619 198 1 0.41 0.0 0.0 0.0 # HT
620 199 2 -0.82 0.0 0.0 0.0 # OT
621 199 1 0.41 0.0 0.0 0.0 # HT
622 199 1 0.41 0.0 0.0 0.0 # HT
623 200 2 -0.82 0.0 0.0 0.0 # OT
624 200 1 0.41 0.0 0.0 0.0 # HT
625 200 1 0.41 0.0 0.0 0.0 # HT
626 201 2 -0.82 0.0 0.0 0.0 # OT
627 201 1 0.41 0.0 0.0 0.0 # HT
628 201 1 0.41 0.0 0.0 0.0 # HT
629 202 2 -0.82 0.0 0.0 0.0 # OT
630 202 1 0.41 0.0 0.0 0.0 # HT
631 202 1 0.41 0.0 0.0 0.0 # HT
632 203 2 -0.82 0.0 0.0 0.0 # OT
633 203 1 0.41 0.0 0.0 0.0 # HT
634 203 1 0.41 0.0 0.0 0.0 # HT
635 204 2 -0.82 0.0 0.0 0.0 # OT
636 204 1 0.41 0.0 0.0 0.0 # HT
637 204 1 0.41 0.0 0.0 0.0 # HT
638 205 2 -0.82 0.0 0.0 0.0 # OT
639 205 1 0.41 0.0 0.0 0.0 # HT
640 205 1 0.41 0.0 0.0 0.0 # HT
641 206 2 -0.82 0.0 0.0 0.0 # OT
642 206 1 0.41 0.0 0.0 0.0 # HT
643 206 1 0.41 0.0 0.0 0.0 # HT
644 207 2 -0.82 0.0 0.0 0.0 # OT
645 207 1 0.41 0.0 0.0 0.0 # HT
646 207 1 0.41 0.0 0.0 0.0 # HT
647 208 2 -0.82 0.0 0.0 0.0 # OT
648 208 1 0.41 0.0 0.0 0.0 # HT
649 208 1 0.41 0.0 0.0 0.0 # HT
650 209 2 -0.82 0.0 0.0 0.0 # OT
651 209 1 0.41 0.0 0.0 0.0 # HT
652 209 1 0.41 0.0 0.0 0.0 # HT
653 210 2 -0.82 0.0 0.0 0.0 # OT
654 210 1 0.41 0.0 0.0 0.0 # HT
655 210 1 0.41 0.0 0.0 0.0 # HT
656 211 2 -0.82 0.0 0.0 0.0 # OT
657 211 1 0.41 0.0 0.0 0.0 # HT
658 211 1 0.41 0.0 0.0 0.0 # HT
659 212 2 -0.82 0.0 0.0 0.0 # OT
660 212 1 0.41 0.0 0.0 0.0 # HT
661 212 1 0.41 0.0 0.0 0.0 # HT
662 213 2 -0.82 0.0 0.0 0.0 # OT
663 213 1 0.41 0.0 0.0 0.0 # HT
664 213 1 0.41 0.0 0.0 0.0 # HT
665 214 2 -0.82 0.0 0.0 0.0 # OT
666 214 1 0.41 0.0 0.0 0.0 # HT
667 214 1 0.41 0.0 0.0 0.0 # HT
668 215 2 -0.82 0.0 0.0 0.0 # OT
669 215 1 0.41 0.0 0.0 0.0 # HT
670 215 1 0.41 0.0 0.0 0.0 # HT
671 216 2 -0.82 0.0 0.0 0.0 # OT
672 216 1 0.41 0.0 0.0 0.0 # HT
673 216 1 0.41 0.0 0.0 0.0 # HT
674 217 2 -0.82 0.0 0.0 0.0 # OT
675 217 1 0.41 0.0 0.0 0.0 # HT
676 217 1 0.41 0.0 0.0 0.0 # HT
677 218 2 -0.82 0.0 0.0 0.0 # OT
678 218 1 0.41 0.0 0.0 0.0 # HT
679 218 1 0.41 0.0 0.0 0.0 # HT
680 219 2 -0.82 0.0 0.0 0.0 # OT
681 219 1 0.41 0.0 0.0 0.0 # HT
682 219 1 0.41 0.0 0.0 0.0 # HT
683 220 2 -0.82 0.0 0.0 0.0 # OT
684 220 1 0.41 0.0 0.0 0.0 # HT
685 220 1 0.41 0.0 0.0 0.0 # HT
686 221 2 -0.82 0.0 0.0 0.0 # OT
687 221 1 0.41 0.0 0.0 0.0 # HT
688 221 1 0.41 0.0 0.0 0.0 # HT
689 222 2 -0.82 0.0 0.0 0.0 # OT
690 222 1 0.41 0.0 0.0 0.0 # HT
691 222 1 0.41 0.0 0.0 0.0 # HT
692 223 2 -0.82 0.0 0.0 0.0 # OT
693 223 1 0.41 0.0 0.0 0.0 # HT
694 223 1 0.41 0.0 0.0 0.0 # HT
695 224 2 -0.82 0.0 0.0 0.0 # OT
696 224 1 0.41 0.0 0.0 0.0 # HT
697 224 1 0.41 0.0 0.0 0.0 # HT
698 225 2 -0.82 0.0 0.0 0.0 # OT
699 225 1 0.41 0.0 0.0 0.0 # HT
700 225 1 0.41 0.0 0.0 0.0 # HT
701 226 2 -0.82 0.0 0.0 0.0 # OT
702 226 1 0.41 0.0 0.0 0.0 # HT
703 226 1 0.41 0.0 0.0 0.0 # HT
704 227 2 -0.82 0.0 0.0 0.0 # OT
705 227 1 0.41 0.0 0.0 0.0 # HT
706 227 1 0.41 0.0 0.0 0.0 # HT
707 228 2 -0.82 0.0 0.0 0.0 # OT
708 228 1 0.41 0.0 0.0 0.0 # HT
709 228 1 0.41 0.0 0.0 0.0 # HT
710 229 2 -0.82 0.0 0.0 0.0 # OT
711 229 1 0.41 0.0 0.0 0.0 # HT
712 229 1 0.41 0.0 0.0 0.0 # HT
713 230 2 -0.82 0.0 0.0 0.0 # OT
714 230 1 0.41 0.0 0.0 0.0 # HT
715 230 1 0.41 0.0 0.0 0.0 # HT
716 231 2 -0.82 0.0 0.0 0.0 # OT
717 231 1 0.41 0.0 0.0 0.0 # HT
718 231 1 0.41 0.0 0.0 0.0 # HT
719 232 2 -0.82 0.0 0.0 0.0 # OT
720 232 1 0.41 0.0 0.0 0.0 # HT
721 232 1 0.41 0.0 0.0 0.0 # HT
722 233 2 -0.82 0.0 0.0 0.0 # OT
723 233 1 0.41 0.0 0.0 0.0 # HT
724 233 1 0.41 0.0 0.0 0.0 # HT
725 234 2 -0.82 0.0 0.0 0.0 # OT
726 234 1 0.41 0.0 0.0 0.0 # HT
727 234 1 0.41 0.0 0.0 0.0 # HT
728 235 2 -0.82 0.0 0.0 0.0 # OT
729 235 1 0.41 0.0 0.0 0.0 # HT
730 235 1 0.41 0.0 0.0 0.0 # HT
731 236 2 -0.82 0.0 0.0 0.0 # OT
732 236 1 0.41 0.0 0.0 0.0 # HT
733 236 1 0.41 0.0 0.0 0.0 # HT
734 237 2 -0.82 0.0 0.0 0.0 # OT
735 237 1 0.41 0.0 0.0 0.0 # HT
736 237 1 0.41 0.0 0.0 0.0 # HT
737 238 2 -0.82 0.0 0.0 0.0 # OT
738 238 1 0.41 0.0 0.0 0.0 # HT
739 238 1 0.41 0.0 0.0 0.0 # HT
740 239 2 -0.82 0.0 0.0 0.0 # OT
741 239 1 0.41 0.0 0.0 0.0 # HT
742 239 1 0.41 0.0 0.0 0.0 # HT
743 240 2 -0.82 0.0 0.0 0.0 # OT
744 240 1 0.41 0.0 0.0 0.0 # HT
745 240 1 0.41 0.0 0.0 0.0 # HT
746 241 2 -0.82 0.0 0.0 0.0 # OT
747 241 1 0.41 0.0 0.0 0.0 # HT
748 241 1 0.41 0.0 0.0 0.0 # HT
749 242 2 -0.82 0.0 0.0 0.0 # OT
750 242 1 0.41 0.0 0.0 0.0 # HT
751 242 1 0.41 0.0 0.0 0.0 # HT
752 243 2 -0.82 0.0 0.0 0.0 # OT
753 243 1 0.41 0.0 0.0 0.0 # HT
754 243 1 0.41 0.0 0.0 0.0 # HT
755 244 2 -0.82 0.0 0.0 0.0 # OT
756 244 1 0.41 0.0 0.0 0.0 # HT
757 244 1 0.41 0.0 0.0 0.0 # HT
758 245 2 -0.82 0.0 0.0 0.0 # OT
759 245 1 0.41 0.0 0.0 0.0 # HT
760 245 1 0.41 0.0 0.0 0.0 # HT
761 246 2 -0.82 0.0 0.0 0.0 # OT
762 246 1 0.41 0.0 0.0 0.0 # HT
763 246 1 0.41 0.0 0.0 0.0 # HT
764 247 2 -0.82 0.0 0.0 0.0 # OT
765 247 1 0.41 0.0 0.0 0.0 # HT
766 247 1 0.41 0.0 0.0 0.0 # HT
767 248 2 -0.82 0.0 0.0 0.0 # OT
768 248 1 0.41 0.0 0.0 0.0 # HT
769 248 1 0.41 0.0 0.0 0.0 # HT
770 249 2 -0.82 0.0 0.0 0.0 # OT
771 249 1 0.41 0.0 0.0 0.0 # HT
772 249 1 0.41 0.0 0.0 0.0 # HT
773 250 2 -0.82 0.0 0.0 0.0 # OT
774 250 1 0.41 0.0 0.0 0.0 # HT
775 250 1 0.41 0.0 0.0 0.0 # HT
776 251 2 -0.82 0.0 0.0 0.0 # OT
777 251 1 0.41 0.0 0.0 0.0 # HT
778 251 1 0.41 0.0 0.0 0.0 # HT
779 252 2 -0.82 0.0 0.0 0.0 # OT
780 252 1 0.41 0.0 0.0 0.0 # HT
781 252 1 0.41 0.0 0.0 0.0 # HT
782 253 2 -0.82 0.0 0.0 0.0 # OT
783 253 1 0.41 0.0 0.0 0.0 # HT
784 253 1 0.41 0.0 0.0 0.0 # HT
785 254 2 -0.82 0.0 0.0 0.0 # OT
786 254 1 0.41 0.0 0.0 0.0 # HT
787 254 1 0.41 0.0 0.0 0.0 # HT
788 255 2 -0.82 0.0 0.0 0.0 # OT
789 255 1 0.41 0.0 0.0 0.0 # HT
790 255 1 0.41 0.0 0.0 0.0 # HT
791 256 2 -0.82 0.0 0.0 0.0 # OT
792 256 1 0.41 0.0 0.0 0.0 # HT
793 256 1 0.41 0.0 0.0 0.0 # HT
794 257 2 -0.82 0.0 0.0 0.0 # OT
795 257 1 0.41 0.0 0.0 0.0 # HT
796 257 1 0.41 0.0 0.0 0.0 # HT
797 258 2 -0.82 0.0 0.0 0.0 # OT
798 258 1 0.41 0.0 0.0 0.0 # HT
799 258 1 0.41 0.0 0.0 0.0 # HT
800 259 2 -0.82 0.0 0.0 0.0 # OT
801 259 1 0.41 0.0 0.0 0.0 # HT
802 259 1 0.41 0.0 0.0 0.0 # HT
803 260 2 -0.82 0.0 0.0 0.0 # OT
804 260 1 0.41 0.0 0.0 0.0 # HT
805 260 1 0.41 0.0 0.0 0.0 # HT
806 261 2 -0.82 0.0 0.0 0.0 # OT
807 261 1 0.41 0.0 0.0 0.0 # HT
808 261 1 0.41 0.0 0.0 0.0 # HT
809 262 2 -0.82 0.0 0.0 0.0 # OT
810 262 1 0.41 0.0 0.0 0.0 # HT
811 262 1 0.41 0.0 0.0 0.0 # HT
812 263 2 -0.82 0.0 0.0 0.0 # OT
813 263 1 0.41 0.0 0.0 0.0 # HT
814 263 1 0.41 0.0 0.0 0.0 # HT
815 264 2 -0.82 0.0 0.0 0.0 # OT
816 264 1 0.41 0.0 0.0 0.0 # HT
817 264 1 0.41 0.0 0.0 0.0 # HT
818 265 2 -0.82 0.0 0.0 0.0 # OT
819 265 1 0.41 0.0 0.0 0.0 # HT
820 265 1 0.41 0.0 0.0 0.0 # HT
821 266 2 -0.82 0.0 0.0 0.0 # OT
822 266 1 0.41 0.0 0.0 0.0 # HT
823 266 1 0.41 0.0 0.0 0.0 # HT
824 267 2 -0.82 0.0 0.0 0.0 # OT
825 267 1 0.41 0.0 0.0 0.0 # HT
826 267 1 0.41 0.0 0.0 0.0 # HT
827 268 2 -0.82 0.0 0.0 0.0 # OT
828 268 1 0.41 0.0 0.0 0.0 # HT
829 268 1 0.41 0.0 0.0 0.0 # HT
830 269 2 -0.82 0.0 0.0 0.0 # OT
831 269 1 0.41 0.0 0.0 0.0 # HT
832 269 1 0.41 0.0 0.0 0.0 # HT
833 270 2 -0.82 0.0 0.0 0.0 # OT
834 270 1 0.41 0.0 0.0 0.0 # HT
835 270 1 0.41 0.0 0.0 0.0 # HT
836 271 2 -0.82 0.0 0.0 0.0 # OT
837 271 1 0.41 0.0 0.0 0.0 # HT
838 271 1 0.41 0.0 0.0 0.0 # HT
839 272 2 -0.82 0.0 0.0 0.0 # OT
840 272 1 0.41 0.0 0.0 0.0 # HT
841 272 1 0.41 0.0 0.0 0.0 # HT
842 273 2 -0.82 0.0 0.0 0.0 # OT
843 273 1 0.41 0.0 0.0 0.0 # HT
844 273 1 0.41 0.0 0.0 0.0 # HT
845 274 2 -0.82 0.0 0.0 0.0 # OT
846 274 1 0.41 0.0 0.0 0.0 # HT
847 274 1 0.41 0.0 0.0 0.0 # HT
848 275 2 -0.82 0.0 0.0 0.0 # OT
849 275 1 0.41 0.0 0.0 0.0 # HT
850 275 1 0.41 0.0 0.0 0.0 # HT
851 276 2 -0.82 0.0 0.0 0.0 # OT
852 276 1 0.41 0.0 0.0 0.0 # HT
853 276 1 0.41 0.0 0.0 0.0 # HT
854 277 2 -0.82 0.0 0.0 0.0 # OT
855 277 1 0.41 0.0 0.0 0.0 # HT
856 277 1 0.41 0.0 0.0 0.0 # HT
857 278 2 -0.82 0.0 0.0 0.0 # OT
858 278 1 0.41 0.0 0.0 0.0 # HT
859 278 1 0.41 0.0 0.0 0.0 # HT
860 279 2 -0.82 0.0 0.0 0.0 # OT
861 279 1 0.41 0.0 0.0 0.0 # HT
862 279 1 0.41 0.0 0.0 0.0 # HT
863 280 2 -0.82 0.0 0.0 0.0 # OT
864 280 1 0.41 0.0 0.0 0.0 # HT
865 280 1 0.41 0.0 0.0 0.0 # HT
866 281 2 -0.82 0.0 0.0 0.0 # OT
867 281 1 0.41 0.0 0.0 0.0 # HT
868 281 1 0.41 0.0 0.0 0.0 # HT
869 282 2 -0.82 0.0 0.0 0.0 # OT
870 282 1 0.41 0.0 0.0 0.0 # HT
871 282 1 0.41 0.0 0.0 0.0 # HT
872 283 2 -0.82 0.0 0.0 0.0 # OT
873 283 1 0.41 0.0 0.0 0.0 # HT
874 283 1 0.41 0.0 0.0 0.0 # HT
875 284 2 -0.82 0.0 0.0 0.0 # OT
876 284 1 0.41 0.0 0.0 0.0 # HT
877 284 1 0.41 0.0 0.0 0.0 # HT
878 285 2 -0.82 0.0 0.0 0.0 # OT
879 285 1 0.41 0.0 0.0 0.0 # HT
880 285 1 0.41 0.0 0.0 0.0 # HT
881 286 2 -0.82 0.0 0.0 0.0 # OT
882 286 1 0.41 0.0 0.0 0.0 # HT
883 286 1 0.41 0.0 0.0 0.0 # HT
884 287 2 -0.82 0.0 0.0 0.0 # OT
885 287 1 0.41 0.0 0.0 0.0 # HT
886 287 1 0.41 0.0 0.0 0.0 # HT