ITEM: TIMESTEP
520000
ITEM: NUMBER OF ATOMS
214084
ITEM: BOX BOUNDS pp pp pp
-59.5669 59.5669
-62.2867 62.2867
-70.4454 70.4454
ITEM: ATOMS id mol type q x y z 
1 1 39 -0.3 -23.0876 -0.45827 -56.3815 
2 1 8 0.33 -22.2862 0.239136 -56.4259 
3 1 8 0.33 -22.5752 -1.3789 -56.2522 
4 1 8 0.33 -23.5068 -0.294744 -55.4213 
5 1 20 0.21 -24.0164 -0.196973 -57.4977 
6 1 10 0.1 -23.4791 -0.118824 -58.435 
7 1 21 -0.18 -25.0817 -1.36092 -57.6742 
8 1 16 0.09 -25.2965 -1.96957 -56.7646 
9 1 16 0.09 -26.0359 -0.80425 -57.8203 
10 1 21 -0.14 -24.7979 -2.2186 -58.8801 
11 1 16 0.09 -23.7934 -2.60195 -58.6258 
12 1 16 0.09 -25.5884 -3.02369 -58.7787 
13 1 46 -0.09 -24.8678 -1.23793 -60.376 
14 1 23 -0.22 -23.4019 -2.0152 -61.0814 
15 1 17 0.09 -23.3047 -1.7356 -62.1731 
16 1 17 0.09 -22.4742 -1.64721 -60.5353 
17 1 17 0.09 -23.2955 -3.12825 -60.9954 
18 1 18 0.51 -24.5897 1.18008 -57.2713 
19 1 42 -0.51 -25.2441 1.55132 -56.3358 
20 2 37 -0.47 -24.2581 2.07717 -58.2893 
21 2 7 0.31 -23.6876 1.85199 -59.0983 
22 2 20 0.07 -24.8299 3.41061 -58.412 
23 2 10 0.09 -25.3927 3.71092 -57.5273 
24 2 22 -0.18 -23.669 4.39936 -58.505 
25 2 16 0.09 -23.081 4.2331 -59.4259 
26 2 16 0.09 -24.1235 5.38113 -58.6704 
27 2 21 -0.28 -22.7863 4.56393 -57.2356 
28 2 16 0.09 -23.3902 4.81333 -56.3121 
29 2 16 0.09 -22.1938 3.66657 -56.9397 
30 2 31 0.62 -21.7774 5.63464 -57.5429 
31 2 44 -0.76 -21.9987 6.6977 -56.9539 
32 2 44 -0.76 -20.8193 5.3701 -58.3217 
33 2 18 0.51 -25.6651 3.56033 -59.6877 
34 2 42 -0.51 -25.6504 2.76815 -60.684 
35 3 37 -0.47 -26.5495 4.57648 -59.7527 
36 3 7 0.31 -26.5811 5.0471 -58.8981 
37 3 20 0.07 -27.4478 4.89487 -60.781 
38 3 10 0.09 -27.4938 3.98015 -61.3365 
39 3 23 -0.27 -28.8169 5.23329 -60.1614 
40 3 17 0.09 -28.8337 6.10457 -59.5043 
41 3 17 0.09 -29.635 5.20938 -60.9154 
42 3 17 0.09 -29.1494 4.54649 -59.4492 
43 3 18 0.51 -26.9622 6.03595 -61.6703 
44 3 42 -0.51 -26.4615 5.88352 -62.774 
45 4 37 -0.47 -27.1196 7.25494 -61.2159 
46 4 7 0.31 -27.4487 7.30718 -60.2954 
47 4 20 0.07 -26.725 8.50546 -61.8627 
48 4 10 0.09 -26.7176 8.31845 -62.9422 
49 4 23 -0.27 -27.8485 9.54517 -61.6418 
50 4 17 0.09 -28.6529 9.3218 -62.3809 
51 4 17 0.09 -28.2069 9.5228 -60.5934 
52 4 17 0.09 -27.3782 10.5249 -61.8996 
53 4 18 0.51 -25.3395 8.96507 -61.285 
54 4 42 -0.51 -24.7414 8.47429 -60.3324 
55 5 37 -0.47 -24.7877 9.97808 -61.9113 
56 5 7 0.31 -25.2342 10.4747 -62.6691 
57 5 20 0.07 -23.5327 10.4877 -61.507 
58 5 10 0.09 -23.1325 10.0563 -60.6235 
59 5 21 -0.09 -22.4735 10.222 -62.6588 
60 5 16 0.09 -22.7822 10.5592 -63.5841 
61 5 16 0.09 -21.5939 10.8778 -62.4857 
62 5 35 -0.36 -22.8784 7.89236 -63.5459 
63 5 7 0.32 -23.7086 8.09374 -64.0436 
64 5 24 -0.05 -22.1425 8.80959 -62.8177 
65 5 25 0.25 -22.2673 6.63368 -63.3889 
66 5 12 0.13 -22.7724 5.726 -63.8354 
67 5 36 -0.7 -21.1399 6.77861 -62.5826 
68 5 24 0.22 -21.0647 8.14501 -62.2891 
69 5 13 0.1 -20.1986 8.60623 -61.8025 
70 5 18 0.51 -23.5827 11.9737 -61.1945 
71 5 42 -0.51 -24.4954 12.767 -61.4861 
72 6 37 -0.47 -22.571 12.5068 -60.4923 
73 6 7 0.31 -21.8056 11.9761 -60.131 
74 6 20 0.07 -22.4714 13.9741 -60.1331 
75 6 10 0.09 -23.418 14.4244 -59.89 
76 6 21 0.05 -21.5054 13.9456 -58.8564 
77 6 16 0.09 -21.7806 13.0447 -58.2161 
78 6 16 0.09 -20.4623 13.809 -59.2714 
79 6 45 -0.66 -21.5628 15.1632 -58.1491 
80 6 7 0.43 -22.509 15.2106 -57.8271 
81 6 18 0.51 -21.8553 14.8825 -61.2655 
82 6 42 -0.51 -22.032 14.6212 -62.4173 
83 7 37 -0.47 -21.2061 15.9345 -60.8292 
84 7 7 0.31 -21.1739 16.021 -59.8417 
85 7 20 0.07 -20.9009 17.008 -61.6885 
86 7 10 0.09 -21.806 17.2476 -62.2038 
87 7 21 -0.18 -20.4162 18.3504 -60.9628 
88 7 16 0.09 -19.3371 18.2445 -60.8313 
89 7 16 0.09 -20.5855 19.2448 -61.5618 
90 7 21 -0.18 -21.0981 18.6092 -59.5781 
91 7 16 0.09 -20.6577 17.8102 -58.8415 
92 7 16 0.09 -20.6291 19.5136 -59.1999 
93 7 21 -0.18 -22.6589 18.61 -59.5219 
94 7 16 0.09 -22.9934 17.5184 -59.6319 
95 7 16 0.09 -22.9694 18.9832 -58.5022 
96 7 21 0.21 -23.3535 19.4829 -60.5985 
97 7 16 0.05 -23.0694 20.5046 -60.4322 
98 7 16 0.05 -23.2399 19.1812 -61.6922 
99 7 39 -0.3 -24.8007 19.3339 -60.3583 
100 7 8 0.33 -25.1678 18.3382 -60.3119 
101 7 8 0.33 -25.1016 19.8075 -59.5022 
102 7 8 0.33 -25.3432 19.7942 -61.1245 
103 7 18 0.51 -19.7821 16.6563 -62.7293 
104 7 42 -0.51 -18.9809 15.7128 -62.6262 
105 8 37 -0.47 -19.7722 17.3465 -63.7868 
106 8 7 0.31 -20.4921 18.0456 -63.8772 
107 8 20 0.07 -18.6749 17.2508 -64.7403 
108 8 10 0.09 -18.5059 16.2382 -65.0346 
109 8 21 0.05 -18.962 17.9268 -66.1385 
110 8 16 0.09 -18.1561 17.9179 -66.869 
111 8 16 0.09 -19.7381 17.3606 -66.7454 
112 8 45 -0.66 -19.4051 19.2572 -65.9774 
113 8 7 0.43 -20.2488 19.0926 -65.5575 
114 8 18 0.51 -17.2827 17.804 -64.2851 
115 8 42 -0.51 -17.1497 18.5493 -63.321 
116 9 37 -0.47 -16.2218 17.3757 -65.0195 
117 9 7 0.31 -16.3639 16.6438 -65.7089 
118 9 20 0.07 -14.8224 17.9713 -65.0771 
119 9 10 0.09 -14.3848 17.765 -64.1186 
120 9 20 0.14 -13.9638 17.4974 -66.2317 
121 9 15 0.09 -14.3877 17.7151 -67.178 
122 9 45 -0.66 -13.8015 16.0603 -66.0861 
123 9 7 0.43 -14.5344 15.721 -66.6574 
124 9 23 -0.27 -12.5743 18.0503 -66.0647 
125 9 17 0.09 -11.8203 17.5949 -66.7882 
126 9 17 0.09 -12.5218 19.1399 -66.2337 
127 9 17 0.09 -12.2316 17.8062 -65.0335 
128 9 18 0.51 -14.8714 19.4892 -65.033 
129 9 42 -0.51 -14.4193 20.0392 -64.0576 
130 10 37 -0.47 -15.4531 20.1979 -66.0532 
131 10 7 0.31 -15.8921 19.6962 -66.8048 
132 10 20 0.07 -15.5288 21.6547 -65.9908 
133 10 10 0.09 -14.5284 22.0488 -66.1102 
134 10 22 -0.18 -16.4122 22.0908 -67.2378 
135 10 16 0.09 -15.9707 21.545 -68.089 
136 10 16 0.09 -17.451 21.682 -67.0979 
137 10 21 -0.28 -16.3051 23.5772 -67.6983 
138 10 16 0.09 -16.7695 24.1985 -66.8809 
139 10 16 0.09 -15.2634 23.8617 -67.8933 
140 10 31 0.62 -17.2906 23.7541 -68.8252 
141 10 44 -0.76 -16.821 23.7833 -70.0303 
142 10 44 -0.76 -18.5166 23.8915 -68.65 
143 10 18 0.51 -16.2558 22.2089 -64.7684 
144 10 42 -0.51 -15.7294 23.1054 -64.0611 
145 11 37 -0.47 -17.4168 21.6083 -64.3864 
146 11 7 0.31 -17.6986 20.9448 -65.0512 
147 11 20 0.07 -18.2166 22.0474 -63.2063 
148 11 10 0.09 -18.5569 23.0402 -63.4413 
149 11 22 -0.18 -19.5435 21.1796 -63.0938 
150 11 16 0.09 -19.2487 20.1673 -63.1814 
151 11 16 0.09 -19.9321 21.3864 -62.0743 
152 11 21 -0.28 -20.778 21.5289 -64.0683 
153 11 16 0.09 -21.2453 22.3993 -63.6615 
154 11 16 0.09 -20.5833 21.6718 -65.1386 
155 11 31 0.62 -21.9032 20.4554 -63.8803 
156 11 44 -0.76 -21.6689 19.346 -64.4353 
157 11 44 -0.76 -22.9923 20.7679 -63.3552 
158 11 18 0.51 -17.371 21.9336 -61.9496 
159 11 42 -0.51 -17.5109 22.7872 -61.0564 
160 12 37 -0.47 -16.5977 20.83 -61.8306 
161 12 7 0.31 -16.5673 20.1547 -62.5812 
162 12 20 0.07 -15.6918 20.6059 -60.7518 
163 12 10 0.09 -16.1572 20.835 -59.8289 
164 12 21 -0.11 -15.1841 19.1111 -60.7347 
165 12 16 0.09 -14.7484 18.9393 -61.7821 
166 12 16 0.09 -14.46 18.961 -59.9263 
167 12 46 -0.23 -16.5412 17.8778 -60.4918 
168 12 14 0.16 -17.0554 18.2081 -61.6382 
169 12 18 0.51 -14.4275 21.4868 -60.6296 
170 12 42 -0.51 -13.9907 21.7827 -59.5232 
171 13 37 -0.47 -13.7713 21.8929 -61.7774 
172 13 7 0.31 -14.1766 21.4614 -62.5942 
173 13 20 0.07 -12.6081 22.7332 -61.9509 
174 13 10 0.09 -11.883 22.4983 -61.2274 
175 13 21 -0.18 -11.9872 22.3922 -63.3403 
176 13 16 0.09 -11.7595 21.3635 -63.2896 
177 13 16 0.09 -12.6283 22.6497 -64.1488 
178 13 20 -0.09 -10.7056 23.1089 -63.784 
179 13 15 0.09 -10.7453 24.2021 -63.557 
180 13 23 -0.27 -9.41401 22.6282 -63.0843 
181 13 17 0.09 -9.16815 21.588 -63.3955 
182 13 17 0.09 -8.57708 23.3916 -63.2913 
183 13 17 0.09 -9.57483 22.4188 -61.9884 
184 13 23 -0.27 -10.4903 22.9904 -65.2885 
185 13 17 0.09 -10.5047 21.9912 -65.7272 
186 13 17 0.09 -11.3013 23.51 -65.8709 
187 13 17 0.09 -9.58355 23.4546 -65.6065 
188 13 18 0.51 -12.9153 24.2039 -61.8307 
189 13 42 -0.51 -12.2699 24.9165 -61.0663 
190 14 37 -0.47 -13.9581 24.667 -62.5949 
191 14 7 0.31 -14.605 24.0368 -63.1078 
192 14 20 0.07 -14.3967 26.0391 -62.7157 
193 14 10 0.09 -13.4727 26.7157 -62.9101 
194 14 23 -0.27 -15.4488 26.1983 -63.8166 
195 14 17 0.09 -16.4673 25.9034 -63.4375 
196 14 17 0.09 -15.7091 27.2008 -64.1198 
197 14 17 0.09 -15.1663 25.5796 -64.701 
198 14 18 0.51 -14.9997 26.605 -61.3644 
199 14 42 -0.51 -15.195 27.8192 -61.2493 
200 15 37 -0.47 -15.3397 25.7118 -60.3692 
201 15 7 0.31 -15.2884 24.7512 -60.5797 
202 15 20 0.07 -15.9375 26.0047 -59.1012 
203 15 10 0.09 -16.731 26.6998 -59.3054 
204 15 21 -0.18 -16.5794 24.7203 -58.3576 
205 15 16 0.09 -17.6356 24.6296 -58.8166 
206 15 16 0.09 -15.9174 23.8007 -58.4805 
207 15 19 0 -16.8369 25.0032 -56.8601 
208 15 19 -0.115 -16.1895 24.3244 -55.8327 
209 15 9 0.115 -15.489 23.5928 -56.0193 
210 15 19 -0.115 -16.3759 24.6351 -54.4438 
211 15 9 0.115 -15.7922 24.122 -53.7217 
212 15 19 0.11 -17.173 25.7081 -54.1655 
213 15 45 -0.54 -17.2445 26.1201 -52.7772 
214 15 7 0.43 -16.5267 25.6868 -52.2705 
215 15 19 -0.115 -17.7491 25.9944 -56.5044 
216 15 9 0.115 -18.3675 26.4352 -57.2565 
217 15 19 -0.115 -17.9694 26.2977 -55.1077 
218 15 9 0.115 -18.7107 27.0808 -54.8464 
219 15 18 0.51 -14.894 26.7905 -58.4109 
220 15 42 -0.51 -15.1261 27.9136 -57.9869 
221 16 37 -0.47 -13.7561 26.1225 -58.2589 
222 16 7 0.31 -13.7751 25.1548 -58.5026 
223 16 20 0.07 -12.5477 26.6339 -57.6037 
224 16 10 0.09 -12.7738 27.1861 -56.6921 
225 16 21 -0.18 -11.5529 25.5416 -57.3443 
226 16 16 0.09 -11.3703 25.0193 -58.2622 
227 16 16 0.09 -10.6442 25.9352 -56.8485 
228 16 19 0 -12.1682 24.5847 -56.4501 
229 16 19 -0.115 -12.3853 24.9013 -55.1077 
230 16 9 0.115 -11.9389 25.7594 -54.6973 
231 16 19 -0.115 -12.816 23.8972 -54.1904 
232 16 9 0.115 -12.7187 24.1539 -53.1096 
233 16 19 -0.115 -13.2453 22.6494 -54.6809 
234 16 9 0.115 -13.4428 21.7922 -54.0727 
235 16 19 -0.115 -12.4668 23.2783 -56.9085 
236 16 9 0.115 -12.2505 22.9896 -57.9213 
237 16 19 -0.115 -13.0094 22.2888 -56.0294 
238 16 9 0.115 -13.2026 21.3056 -56.3249 
239 16 18 0.51 -12.0246 27.7382 -58.4246 
240 16 42 -0.51 -11.8713 28.8369 -57.9341 
241 17 37 -0.47 -11.9105 27.5081 -59.7392 
242 17 7 0.31 -11.8666 26.5552 -60.0306 
243 17 21 -0.02 -11.5505 28.5378 -60.7489 
244 17 11 0.09 -11.8511 29.5652 -60.4292 
245 17 11 0.09 -12.0689 28.3265 -61.6548 
246 17 18 0.51 -10.0318 28.6269 -60.9312 
247 17 42 -0.51 -9.38789 29.5265 -60.2874 
248 18 37 -0.47 -9.3789 27.7276 -61.768 
249 18 7 0.31 -9.80719 27.014 -62.3782 
250 18 20 0.07 -7.99887 27.4447 -61.5109 
251 18 10 0.09 -7.44942 28.4432 -61.3916 
252 18 20 -0.09 -7.90318 26.512 -60.3235 
253 18 15 0.09 -8.23923 27.185 -59.5134 
254 18 23 -0.27 -8.72342 25.2072 -60.4788 
255 18 17 0.09 -8.58711 24.7961 -59.469 
256 18 17 0.09 -9.80964 25.4145 -60.6474 
257 18 17 0.09 -8.26464 24.5744 -61.249 
258 18 23 -0.27 -6.41007 26.0908 -60.088 
259 18 17 0.09 -6.33717 25.6952 -59.0052 
260 18 17 0.09 -5.9959 25.298 -60.7996 
261 18 17 0.09 -5.72006 26.9779 -60.2021 
262 18 18 0.51 -7.49568 26.8314 -62.7954 
263 18 42 -0.51 -8.24386 26.1343 -63.4757 
264 19 37 -0.47 -6.28234 27.2305 -63.208 
265 19 7 0.31 -5.77329 27.9755 -62.7494 
266 19 20 0.07 -5.86762 26.7803 -64.511 
267 19 10 0.09 -6.71315 26.4048 -65.1692 
268 19 21 0.05 -5.10157 27.9206 -65.2442 
269 19 16 0.09 -5.71169 28.8004 -65.4881 
270 19 16 0.09 -4.241 28.3113 -64.5883 
271 19 45 -0.66 -4.45071 27.4989 -66.4392 
272 19 7 0.43 -5.06265 27.577 -67.1639 
273 19 18 0.51 -4.95756 25.5275 -64.377 
274 19 42 -0.51 -3.95412 25.5644 -63.6608 
275 20 37 -0.47 -5.30203 24.3659 -65.1119 
276 20 7 0.31 -6.01525 24.3908 -65.8409 
277 20 20 0.07 -4.64161 23.0522 -65.0366 
278 20 10 0.09 -5.02802 22.5837 -64.1096 
279 20 22 -0.18 -5.01395 22.2236 -66.2654 
280 20 16 0.09 -4.78299 22.7376 -67.1645 
281 20 16 0.09 -4.34774 21.3444 -66.353 
282 20 21 -0.28 -6.48636 21.7239 -66.3836 
283 20 16 0.09 -6.58991 20.7001 -65.9735 
284 20 16 0.09 -7.13704 22.3369 -65.7428 
285 20 31 0.62 -7.07949 21.8934 -67.7797 
286 20 44 -0.76 -7.45604 20.8435 -68.393 
287 20 44 -0.76 -7.08508 23.0462 -68.3495 
288 20 18 0.51 -3.08566 23.039 -64.946 
289 20 42 -0.51 -2.61501 22.0935 -64.398 
290 21 37 -0.47 -2.32745 24.0131 -65.5306 
291 21 7 0.31 -2.71108 24.6256 -66.2521 
292 21 20 0.07 -0.820623 23.8646 -65.5349 
293 21 10 0.09 -0.635176 22.8508 -65.2602 
294 21 20 0.14 -0.257404 24.3894 -66.7559 
295 21 15 0.09 0.82573 24.6898 -66.7273 
296 21 45 -0.66 -0.971965 25.4967 -67.2772 
297 21 7 0.43 -0.481304 25.7783 -68.0812 
298 21 23 -0.27 -0.286425 23.3699 -67.9221 
299 21 17 0.09 -1.32106 23.018 -68.0637 
300 21 17 0.09 0.165519 23.7829 -68.7778 
301 21 17 0.09 0.276035 22.5082 -67.6312 
302 21 18 0.51 -0.258741 24.806 -64.4012 
303 21 42 -0.51 0.954697 24.7342 -64.1482 
304 22 37 -0.47 -1.06019 25.6955 -63.7998 
305 22 7 0.31 -2.00875 25.5918 -64.044 
306 22 20 0.07 -0.645514 26.7061 -62.8245 
307 22 10 0.09 0.437987 26.728 -62.8985 
308 22 20 0.14 -1.10234 28.1747 -63.1151 
309 22 15 0.09 -2.239 27.9893 -63.4201 
310 22 45 -0.66 -0.503315 28.7462 -64.2961 
311 22 7 0.43 -0.906652 28.3466 -65.0199 
312 22 23 -0.27 -0.878231 29.037 -61.9116 
313 22 17 0.09 -1.01558 30.1375 -62.0916 
314 22 17 0.09 -1.54563 28.8212 -61.0172 
315 22 17 0.09 0.166399 28.9466 -61.603 
316 22 18 0.51 -0.996271 26.2843 -61.4107 
317 22 42 -0.51 -0.133841 26.4651 -60.5439 
318 23 37 -0.47 -2.19477 25.8027 -61.0921 
319 23 7 0.31 -2.93765 25.5757 -61.7548 
320 23 21 -0.02 -2.67342 25.6755 -59.7253 
321 23 11 0.09 -1.87932 25.2551 -59.1164 
322 23 11 0.09 -3.50091 25.0172 -59.6823 
323 23 18 0.51 -3.19376 26.905 -58.9861 
324 23 42 -0.51 -3.37174 27.9266 -59.5738 
325 24 37 -0.47 -3.46728 26.7852 -57.7166 
326 24 7 0.31 -3.24821 25.9094 -57.3443 
327 24 20 0.07 -3.90374 27.802 -56.8307 
328 24 10 0.09 -4.60622 28.4786 -57.3114 
329 24 21 -0.18 -4.58298 27.1176 -55.5904 
330 24 16 0.09 -3.90234 26.3433 -55.1877 
331 24 16 0.09 -4.71551 27.9053 -54.7832 
332 24 20 -0.09 -5.98328 26.4066 -55.8791 
333 24 15 0.09 -5.74262 25.5857 -56.6549 
334 24 23 -0.27 -6.48195 25.8223 -54.5518 
335 24 17 0.09 -7.3631 25.3151 -54.7686 
336 24 17 0.09 -5.69301 25.0453 -54.2192 
337 24 17 0.09 -6.46689 26.6189 -53.7077 
338 24 23 -0.27 -6.96717 27.4123 -56.5236 
339 24 17 0.09 -7.24631 28.2262 -55.8718 
340 24 17 0.09 -6.54041 27.8632 -57.4825 
341 24 17 0.09 -7.94221 27.0366 -56.9041 
342 24 18 0.51 -2.77493 28.6896 -56.3484 
343 24 42 -0.51 -1.57397 28.3191 -56.2373 
344 25 37 -0.47 -3.18119 29.8941 -55.9203 
345 25 7 0.31 -4.15842 30.139 -56.0747 
346 25 20 0.07 -2.28745 30.8792 -55.3473 
347 25 10 0.09 -1.24471 30.6871 -55.6965 
348 25 20 0.14 -2.74383 32.352 -55.7363 
349 25 15 0.09 -1.91051 33.0876 -55.3386 
350 25 45 -0.66 -3.87659 32.8175 -55.0306 
351 25 7 0.43 -4.09671 33.6425 -55.5201 
352 25 23 -0.27 -3.13215 32.4445 -57.2102 
353 25 17 0.09 -4.10264 31.9089 -57.5012 
354 25 17 0.09 -3.12679 33.4651 -57.5391 
355 25 17 0.09 -2.40769 32.0201 -57.8044 
356 25 18 0.51 -2.21266 30.7628 -53.8785 
357 25 42 -0.51 -3.1081 30.1654 -53.2547 
358 26 34 -0.29 -1.22227 31.454 -53.1577 
359 26 30 0 0.118951 31.6771 -53.6967 
360 26 16 0.09 0.638588 30.7104 -53.9281 
361 26 16 0.09 0.0372621 32.2311 -54.6819 
362 26 28 0.02 -1.21917 31.5247 -51.7063 
363 26 10 0.09 -1.42468 30.5121 -51.4194 
364 26 29 -0.18 0.158714 31.9771 -51.3227 
365 26 16 0.09 0.819298 31.232 -50.7673 
366 26 16 0.09 0.137024 32.8667 -50.6708 
367 26 29 -0.18 0.82906 32.451 -52.6295 
368 26 16 0.09 1.89415 32.1723 -52.6081 
369 26 16 0.09 0.563543 33.5292 -52.7609 
370 26 18 0.51 -2.33695 32.4256 -51.1271 
371 26 42 -0.51 -2.6226 32.3754 -49.911 
372 27 37 -0.47 -3.05894 33.1982 -51.9083 
373 27 7 0.31 -2.75876 33.2171 -52.8402 
374 27 20 0.07 -4.16336 34.0108 -51.4785 
375 27 10 0.09 -4.03122 34.4837 -50.4716 
376 27 22 -0.28 -4.48198 35.1729 -52.4099 
377 27 16 0.09 -4.918 34.8189 -53.3144 
378 27 16 0.09 -5.1937 35.7913 -51.8443 
379 27 31 0.62 -3.28861 36.141 -52.6437 
380 27 44 -0.76 -2.62566 36.4075 -51.5989 
381 27 44 -0.76 -3.09801 36.7576 -53.7214 
382 27 18 0.51 -5.45281 33.057 -51.3984 
383 27 42 -0.51 -6.16896 32.9635 -50.4142 
384 28 37 -0.47 -5.61052 32.275 -52.4442 
385 28 7 0.31 -5.09955 32.3695 -53.2813 
386 28 20 0.07 -6.5902 31.1682 -52.5044 
387 28 10 0.09 -7.53573 31.7293 -52.4368 
388 28 21 -0.18 -6.63006 30.4196 -53.8949 
389 28 16 0.09 -5.62272 30.0295 -54.1977 
390 28 16 0.09 -7.37199 29.544 -53.8361 
391 28 21 -0.18 -7.11928 31.3382 -55.0315 
392 28 16 0.09 -6.3136 32.0455 -55.3598 
393 28 16 0.09 -7.36141 30.6994 -55.9271 
394 28 31 0.55 -8.43979 32.1725 -54.7444 
395 28 42 -0.55 -8.42753 33.103 -53.9816 
396 28 38 -0.62 -9.55252 31.7913 -55.3738 
397 28 7 0.32 -10.4839 32.1794 -55.3563 
398 28 7 0.3 -9.50263 30.8406 -55.7933 
399 28 18 0.51 -6.44921 30.1001 -51.4603 
400 28 42 -0.51 -7.35191 29.882 -50.7258 
401 29 37 -0.47 -5.28174 29.3793 -51.5267 
402 29 7 0.31 -4.57792 29.5953 -52.2301 
403 29 20 0.07 -4.91406 28.4614 -50.4172 
404 29 10 0.09 -5.60413 27.6741 -50.3588 
405 29 20 -0.09 -3.50763 27.9068 -50.6736 
406 29 15 0.09 -2.84329 28.8227 -50.7942 
407 29 23 -0.27 -3.03132 26.9545 -49.5691 
408 29 17 0.09 -3.02802 27.5043 -48.6163 
409 29 17 0.09 -3.82011 26.1834 -49.4125 
410 29 17 0.09 -2.07926 26.464 -49.672 
411 29 23 -0.27 -3.4641 27.165 -52.0431 
412 29 17 0.09 -2.46904 26.6165 -52.0197 
413 29 17 0.09 -4.24161 26.3933 -51.8418 
414 29 17 0.09 -3.70712 27.7214 -52.9105 
415 29 18 0.51 -5.15916 29.011 -48.9592 
416 29 42 -0.51 -5.72848 28.3151 -48.1306 
417 30 37 -0.47 -4.79169 30.2661 -48.5378 
418 30 7 0.31 -4.14284 30.8227 -49.055 
419 30 20 0.07 -5.16228 30.7033 -47.2209 
420 30 10 0.09 -4.80544 30.0042 -46.4574 
421 30 21 -0.18 -4.48231 32.1258 -46.9853 
422 30 16 0.09 -4.63926 32.7422 -47.8507 
423 30 16 0.09 -5.00923 32.6833 -46.1395 
424 30 21 -0.18 -2.95178 31.9707 -46.6703 
425 30 16 0.09 -2.8503 31.4072 -45.766 
426 30 16 0.09 -2.4521 31.4368 -47.5282 
427 30 21 -0.18 -2.43983 33.3888 -46.3969 
428 30 16 0.09 -3.24901 33.7803 -45.7408 
429 30 16 0.09 -1.57297 33.3201 -45.7405 
430 30 21 0.21 -2.09779 34.1229 -47.6133 
431 30 16 0.05 -1.2914 33.541 -48.1579 
432 30 16 0.05 -2.91177 34.2836 -48.3287 
433 30 39 -0.3 -1.70743 35.5141 -47.3318 
434 30 8 0.33 -2.23323 35.8356 -46.5166 
435 30 8 0.33 -0.714096 35.5087 -47.0709 
436 30 8 0.33 -1.93915 36.1856 -48.1054 
437 30 18 0.51 -6.68251 30.8979 -46.8479 
438 30 42 -0.51 -7.21679 30.6092 -45.7748 
439 31 37 -0.47 -7.40679 31.5359 -47.7361 
440 31 7 0.31 -6.90275 31.976 -48.454 
441 31 20 0.07 -8.85458 31.5375 -47.7227 
442 31 10 0.09 -9.20849 31.9735 -46.7715 
443 31 21 -0.18 -9.3317 32.4029 -48.8506 
444 31 16 0.09 -8.93143 32.2552 -49.8915 
445 31 16 0.09 -10.4944 32.3085 -48.9733 
446 31 21 -0.18 -9.25126 33.9541 -48.58 
447 31 16 0.09 -8.20754 34.2397 -48.7399 
448 31 16 0.09 -9.8867 34.4531 -49.3394 
449 31 21 0.2 -9.71469 34.4572 -47.123 
450 31 16 0.09 -9.10031 33.9411 -46.3081 
451 31 16 0.09 -9.61545 35.4999 -46.9296 
452 31 40 -0.7 -11.1802 34.0915 -46.9373 
453 31 8 0.44 -11.716 33.8321 -47.6829 
454 31 18 0.64 -11.8522 34.2841 -45.7958 
455 31 40 -0.8 -11.2715 34.7135 -44.7519 
456 31 8 0.46 -11.8858 34.6341 -43.9303 
457 31 8 0.46 -10.2849 34.8536 -44.7688 
458 31 40 -0.8 -13.1079 34.1076 -45.783 
459 31 8 0.46 -13.6478 34.378 -45.0095 
460 31 8 0.46 -13.5364 33.9999 -46.6688 
461 31 18 0.51 -9.45781 30.1409 -47.6955 
462 31 42 -0.51 -10.3162 29.9243 -46.8902 
463 32 37 -0.47 -8.87672 29.1233 -48.42 
464 32 7 0.31 -8.08926 29.3125 -48.9374 
465 32 20 0.07 -9.32465 27.7235 -48.3478 
466 32 10 0.09 -10.4253 27.7506 -48.3752 
467 32 21 -0.09 -8.86213 26.9618 -49.5244 
468 32 16 0.09 -7.75752 27.2085 -49.6254 
469 32 16 0.09 -8.81528 25.8474 -49.2365 
470 32 35 -0.36 -9.54003 26.2696 -51.7809 
471 32 7 0.32 -9.22463 25.305 -51.6223 
472 32 24 -0.05 -9.60439 27.2218 -50.8331 
473 32 25 0.25 -10.1702 26.7929 -52.8833 
474 32 12 0.13 -10.3617 26.1802 -53.8018 
475 32 36 -0.7 -10.6527 27.9843 -52.7209 
476 32 24 0.22 -10.2624 28.2639 -51.3882 
477 32 13 0.1 -10.6142 29.2074 -50.9442 
478 32 18 0.51 -9.03978 27.0679 -47.0149 
479 32 42 -0.51 -9.86079 26.3461 -46.4436 
480 33 37 -0.47 -7.87147 27.4625 -46.2538 
481 33 7 0.31 -7.12574 27.932 -46.7315 
482 33 20 0.07 -7.62995 27.1265 -44.8857 
483 33 10 0.09 -7.76933 26.0242 -44.7287 
484 33 21 -0.18 -6.12076 27.428 -44.5394 
485 33 16 0.09 -5.99782 28.5316 -44.6039 
486 33 16 0.09 -5.93054 27.0852 -43.4622 
487 33 20 -0.09 -5.02064 26.7003 -45.3222 
488 33 15 0.09 -5.16337 26.7935 -46.3972 
489 33 23 -0.27 -3.56912 27.0718 -44.8528 
490 33 17 0.09 -3.49283 28.1733 -44.8338 
491 33 17 0.09 -3.55097 26.7721 -43.754 
492 33 17 0.09 -2.75606 26.5796 -45.443 
493 33 23 -0.27 -5.01352 25.1737 -45.1308 
494 33 17 0.09 -4.48573 25.0791 -44.1686 
495 33 17 0.09 -6.06915 24.7417 -45.1352 
496 33 17 0.09 -4.47134 24.6545 -45.9173 
497 33 18 0.51 -8.61737 27.6684 -43.8074 
498 33 42 -0.51 -8.87867 27.0303 -42.805 
499 34 37 -0.47 -9.21365 28.9112 -44.0647 
500 34 7 0.31 -8.85776 29.5949 -44.7052 
501 34 20 0.07 -10.3794 29.3831 -43.2918 
502 34 10 0.09 -10.1705 29.0898 -42.2482 
503 34 22 -0.18 -10.3215 30.9712 -43.2278 
504 34 16 0.09 -10.2172 31.2891 -44.2701 
505 34 16 0.09 -11.3446 31.3838 -42.8076 
506 34 21 -0.28 -9.25454 31.5358 -42.2751 
507 34 16 0.09 -9.4542 31.0695 -41.2389 
508 34 16 0.09 -8.24184 31.2558 -42.641 
509 34 31 0.62 -9.23247 33.0562 -42.2169 
510 34 44 -0.76 -8.17731 33.678 -42.4709 
511 34 44 -0.76 -10.2314 33.5878 -41.6397 
512 34 18 0.51 -11.6884 28.818 -43.7294 
513 34 42 -0.51 -12.5692 28.4901 -42.9546 
514 35 37 -0.47 -11.9724 28.7721 -45.0778 
515 35 7 0.31 -11.1872 28.8695 -45.6101 
516 35 20 0.07 -13.275 28.4708 -45.6989 
517 35 10 0.09 -14.0344 29.1274 -45.3323 
518 35 21 -0.18 -13.2559 28.8501 -47.1685 
519 35 16 0.09 -12.987 29.9187 -47.3364 
520 35 16 0.09 -12.4452 28.2452 -47.6195 
521 35 21 -0.18 -14.4498 28.5885 -47.9862 
522 35 16 0.09 -14.3346 28.8483 -49.1199 
523 35 16 0.09 -14.6699 27.4801 -48.0057 
524 35 21 -0.18 -15.6669 29.4024 -47.57 
525 35 16 0.09 -16.5896 28.9352 -48.0108 
526 35 16 0.09 -15.7372 29.4624 -46.4295 
527 35 21 0.21 -15.6869 30.9653 -47.7458 
528 35 16 0.05 -16.7139 31.3796 -47.4861 
529 35 16 0.05 -14.8461 31.3854 -47.0711 
530 35 39 -0.3 -15.3426 31.3995 -49.1099 
531 35 8 0.33 -16.0432 31.0236 -49.7825 
532 35 8 0.33 -15.2384 32.399 -49.13 
533 35 8 0.33 -14.4179 30.9257 -49.4405 
534 35 18 0.51 -13.6859 27.0112 -45.5158 
535 35 42 -0.51 -14.7817 26.6098 -45.1671 
536 36 37 -0.47 -12.7457 26.0799 -45.8087 
537 36 7 0.31 -11.9155 26.2599 -46.3235 
538 36 20 0.07 -12.8999 24.6303 -45.7299 
539 36 10 0.09 -13.9495 24.3584 -45.6558 
540 36 21 -0.18 -12.23 23.9187 -46.9691 
541 36 16 0.09 -11.122 24.1385 -46.9046 
542 36 16 0.09 -12.3818 22.8032 -46.9182 
543 36 19 0 -12.8266 24.489 -48.1878 
544 36 19 -0.115 -14.118 24.0948 -48.6344 
545 36 9 0.115 -14.7912 23.6243 -47.9927 
546 36 19 -0.115 -14.5841 24.566 -49.8666 
547 36 9 0.115 -15.6339 24.3321 -50.0889 
548 36 19 0.11 -13.7648 25.3465 -50.6732 
549 36 45 -0.54 -14.3477 25.9359 -51.7612 
550 36 7 0.43 -13.6948 26.6149 -52.0799 
551 36 19 -0.115 -12.0238 25.3264 -49.035 
552 36 9 0.115 -11.0746 25.6407 -48.6962 
553 36 19 -0.115 -12.5565 25.7318 -50.2539 
554 36 9 0.115 -11.9283 26.4092 -50.8173 
555 36 18 0.51 -12.2296 24.0831 -44.4958 
556 36 42 -0.51 -12.6216 23.0912 -43.8772 
557 37 37 -0.47 -11.2144 24.8313 -43.9256 
558 37 7 0.31 -10.8271 25.6467 -44.296 
559 37 21 -0.02 -10.5779 24.2941 -42.708 
560 37 11 0.09 -11.2371 23.6202 -42.1716 
561 37 11 0.09 -10.4381 25.1209 -42.0399 
562 37 18 0.51 -9.25231 23.7299 -43.001 
563 37 42 -0.51 -9.02496 23.2827 -44.1284 
564 38 37 -0.47 -8.30881 23.7436 -42.0764 
565 38 7 0.31 -8.59339 24.1184 -41.1216 
566 38 20 0.07 -7.04279 23.0369 -42.2577 
567 38 10 0.09 -6.77829 23.0489 -43.3425 
568 38 21 -0.09 -5.87772 23.7855 -41.4592 
569 38 16 0.09 -5.57489 24.7128 -42.0541 
570 38 16 0.09 -6.11168 24.0569 -40.4526 
571 38 35 -0.36 -3.93172 22.6499 -42.7452 
572 38 7 0.32 -4.22326 22.8957 -43.6862 
573 38 24 -0.05 -4.58706 22.9642 -41.5464 
574 38 25 0.25 -2.91651 21.8257 -42.4305 
575 38 12 0.13 -2.18054 21.5004 -43.1878 
576 38 36 -0.7 -2.85198 21.6231 -41.1671 
577 38 24 0.22 -3.85196 22.356 -40.5783 
578 38 13 0.1 -3.88583 22.4968 -39.4624 
579 38 18 0.51 -7.28018 21.6055 -41.7973 
580 38 42 -0.51 -8.28145 21.2572 -41.2033 
581 39 37 -0.47 -6.3248 20.7014 -42.0664 
582 39 7 0.31 -5.48329 21.1284 -42.4329 
583 39 20 0.07 -6.37007 19.2845 -42.0312 
584 39 10 0.09 -7.44378 18.9739 -42.0253 
585 39 21 -0.18 -5.50878 18.6075 -43.2207 
586 39 16 0.09 -4.45689 19.0706 -43.2027 
587 39 16 0.09 -5.49362 17.5397 -42.9694 
588 39 31 0.55 -6.21486 18.8581 -44.5577 
589 39 42 -0.55 -7.3305 19.302 -44.5714 
590 39 38 -0.62 -5.42081 18.5867 -45.624 
591 39 7 0.32 -5.73751 18.8212 -46.5859 
592 39 7 0.3 -4.56638 18.1108 -45.471 
593 39 18 0.51 -5.91148 18.8305 -40.6611 
594 39 42 -0.51 -6.62516 18.3258 -39.8232 
595 40 37 -0.47 -4.64023 18.9925 -40.4222 
596 40 7 0.31 -4.09008 19.7932 -40.8059 
597 40 20 0.07 -3.89828 18.3878 -39.302 
598 40 10 0.09 -2.94467 18.8522 -39.4025 
599 40 22 -0.18 -4.41044 18.9248 -37.9261 
600 40 16 0.09 -5.41373 18.5798 -37.7703 
601 40 16 0.09 -3.82249 18.4387 -37.1449 
602 40 21 -0.28 -4.12769 20.4186 -37.7599 
603 40 16 0.09 -3.13046 20.7157 -38.1371 
604 40 16 0.09 -4.91498 21.0621 -38.2422 
605 40 31 0.62 -4.08498 20.9942 -36.3217 
606 40 44 -0.76 -4.98248 20.6137 -35.4802 
607 40 44 -0.76 -3.17307 21.8208 -36.04 
608 40 18 0.51 -3.72676 16.8506 -39.4714 
609 40 42 -0.51 -3.548 16.3576 -40.6127 
610 41 37 -0.47 -3.7922 16.167 -38.3164 
611 41 7 0.31 -3.68057 16.6358 -37.4135 
612 41 20 0.07 -3.63659 14.7525 -38.1695 
613 41 10 0.09 -3.21229 14.3476 -39.02 
614 41 21 -0.18 -2.65514 14.5346 -36.999 
615 41 16 0.09 -1.62936 14.9789 -37.1127 
616 41 16 0.09 -3.04318 14.9842 -35.9907 
617 41 20 -0.09 -2.23004 13.026 -36.8834 
618 41 15 0.09 -3.11031 12.2621 -36.8098 
619 41 23 -0.27 -1.3007 12.5269 -38.0068 
620 41 17 0.09 -1.81904 12.6372 -38.9651 
621 41 17 0.09 -0.322399 13.1176 -38.0185 
622 41 17 0.09 -1.0767 11.4309 -37.9174 
623 41 23 -0.27 -1.65238 12.8759 -35.5511 
624 41 17 0.09 -1.17189 11.9198 -35.3758 
625 41 17 0.09 -0.825516 13.6109 -35.36 
626 41 17 0.09 -2.49661 12.9061 -34.8269 
627 41 18 0.51 -5.09456 14.235 -37.8233 
628 41 42 -0.51 -5.8497 14.8764 -37.0852 
629 42 34 -0.29 -5.48317 13.046 -38.3261 
630 42 30 0 -4.85339 12.3793 -39.4559 
631 42 16 0.09 -4.85253 12.942 -40.3894 
632 42 16 0.09 -3.7725 12.1831 -39.2655 
633 42 28 0.02 -6.64817 12.3053 -37.7623 
634 42 10 0.09 -7.55304 12.9134 -37.732 
635 42 29 -0.18 -6.73511 11.0421 -38.7638 
636 42 16 0.09 -7.4673 11.2978 -39.5195 
637 42 16 0.09 -7.03752 10.0817 -38.1074 
638 42 29 -0.18 -5.39986 10.964 -39.5121 
639 42 16 0.09 -5.53923 10.6427 -40.597 
640 42 16 0.09 -4.86344 10.2416 -38.9284 
641 42 18 0.51 -6.48552 11.9092 -36.249 
642 42 42 -0.51 -5.33517 11.8442 -35.808 
643 43 37 -0.47 -7.54278 11.585 -35.5092 
644 43 7 0.31 -8.45843 11.6372 -35.947 
645 43 20 0.07 -7.48749 11.3041 -34.1267 
646 43 10 0.09 -6.44787 11.294 -33.7543 
647 43 23 -0.27 -8.35143 12.4247 -33.4736 
648 43 17 0.09 -9.45148 12.3295 -33.682 
649 43 17 0.09 -8.25052 12.354 -32.3783 
650 43 17 0.09 -8.03751 13.4474 -33.7864 
651 43 18 0.51 -8.11992 9.96131 -33.865 
652 43 42 -0.51 -9.08832 9.57476 -34.6114 
653 44 37 -0.47 -7.71878 9.302 -32.7148 
654 44 7 0.31 -7.00523 9.68021 -32.1124 
655 44 20 0.07 -8.2291 7.95594 -32.4948 
656 44 10 0.09 -8.70284 7.514 -33.3118 
657 44 22 -0.18 -7.00622 6.96345 -32.2217 
658 44 16 0.09 -6.4174 7.27167 -31.3009 
659 44 16 0.09 -7.39957 5.94991 -32.0197 
660 44 21 -0.28 -5.98702 6.83501 -33.4232 
661 44 16 0.09 -6.55248 6.73817 -34.3666 
662 44 16 0.09 -5.37144 7.74597 -33.536 
663 44 31 0.62 -4.93436 5.69881 -33.3405 
664 44 44 -0.76 -4.26841 5.60454 -34.4063 
665 44 44 -0.76 -4.79659 4.97867 -32.3088 
666 44 18 0.51 -9.23027 8.11962 -31.3993 
667 44 42 -0.51 -9.45376 9.22627 -30.8599 
668 45 37 -0.47 -9.9468 7.04222 -30.9862 
669 45 7 0.31 -9.55475 6.09962 -31.152 
670 45 20 0.07 -11.137 7.21431 -30.16 
671 45 10 0.09 -11.7728 8.0102 -30.5862 
672 45 22 -0.18 -12.1209 6.03311 -30.2501 
673 45 16 0.09 -11.7232 5.00897 -30.251 
674 45 16 0.09 -12.9208 6.15801 -29.513 
675 45 21 -0.28 -12.9126 6.18819 -31.5579 
676 45 16 0.09 -13.3638 7.15006 -31.5423 
677 45 16 0.09 -12.2256 6.08051 -32.4755 
678 45 31 0.62 -14.0871 5.28376 -31.8165 
679 45 44 -0.76 -14.8733 5.73033 -32.6545 
680 45 44 -0.76 -14.2054 4.26393 -31.104 
681 45 18 0.51 -10.6929 7.5856 -28.7279 
682 45 42 -0.51 -9.51994 7.57867 -28.3878 
683 46 37 -0.47 -11.8032 7.80958 -27.9486 
684 46 7 0.31 -12.7093 7.81581 -28.3174 
685 46 21 -0.02 -11.796 7.9678 -26.5361 
686 46 11 0.09 -11.0194 7.41872 -26.0644 
687 46 11 0.09 -12.8382 7.9316 -26.1982 
688 46 18 0.51 -11.4317 9.43676 -26.211 
689 46 42 -0.51 -10.5363 9.72611 -25.3747 
690 47 37 -0.47 -12.1963 10.3616 -26.8109 
691 47 7 0.31 -12.8041 10.0858 -27.5416 
692 47 20 0.07 -12.0629 11.7792 -26.5076 
693 47 10 0.09 -11.4722 11.8489 -25.658 
694 47 21 -0.18 -11.4309 12.4403 -27.7328 
695 47 16 0.09 -12.164 12.4637 -28.5862 
696 47 16 0.09 -11.2666 13.5041 -27.5423 
697 47 21 -0.18 -10.113 11.8793 -28.3065 
698 47 16 0.09 -10.2649 10.8393 -28.7298 
699 47 16 0.09 -9.82317 12.4446 -29.2672 
700 47 21 -0.18 -8.8724 11.7774 -27.3901 
701 47 16 0.09 -8.56476 12.7813 -27.0671 
702 47 16 0.09 -9.1241 11.2778 -26.4981 
703 47 21 0.21 -7.59761 11.0974 -27.991 
704 47 16 0.05 -7.22666 11.7963 -28.7671 
705 47 16 0.05 -6.82369 11.1422 -27.2571 
706 47 39 -0.3 -7.75027 9.7352 -28.5867 
707 47 8 0.33 -8.28068 9.78934 -29.5386 
708 47 8 0.33 -6.82213 9.34906 -28.7598 
709 47 8 0.33 -8.27065 9.12042 -27.871 
710 47 18 0.51 -13.4246 12.4682 -26.2346 
711 47 42 -0.51 -14.4392 12.2557 -26.9646 
712 48 37 -0.47 -13.6684 13.332 -25.1821 
713 48 7 0.31 -14.6477 13.5738 -25.0611 
714 48 20 0.07 -12.6204 14.0338 -24.4612 
715 48 10 0.09 -11.9976 14.2548 -25.2662 
716 48 21 0.05 -13.1181 15.3887 -23.8461 
717 48 16 0.09 -12.4037 16.0141 -23.2851 