ITEM: TIMESTEP
7500000
ITEM: NUMBER OF ATOMS
1429
ITEM: BOX BOUNDS pp pp pp
-16.2278 8.02157
-10.8168 13.4326
-10.2855 13.9639
ITEM: ATOMS id mol type q x y z 
4154 272 6 0.09 -4.29456 2.43525 -2.5143 
4158 272 15 -0.27 -4.21953 2.46619 -1.36935 
4159 272 6 0.09 -5.20856 2.1321 -0.996984 
4160 272 6 0.09 -3.38041 1.76961 -1.1631 
4166 272 8 0.51 -3.89188 3.86643 -1.00763 
4167 272 9 -0.51 -2.90332 4.1959 -0.319479 
4168 273 10 -0.47 -4.7914 4.82725 -1.51071 
4169 273 11 0.31 -5.66052 4.5817 -1.96351 
4170 273 3 0.07 -4.45652 6.25196 -1.48837 
4171 273 4 0.09 -3.47978 6.42556 -0.95188 
4172 273 3 -0.18 -4.33855 6.87458 -2.88137 
4173 273 6 0.09 -5.31989 6.81028 -3.49217 
4174 273 6 0.09 -3.9229 7.90393 -2.84618 
4175 273 5 -0.21 -3.38967 6.29311 -3.92112 
4176 273 6 0.09 -3.37459 6.91465 -4.8903 
4177 273 6 0.09 -2.36114 6.30931 -3.44713 
4178 273 36 0.75 -3.70059 4.83397 -4.41455 
4179 273 14 -0.61 -2.55102 4.13918 -4.68502 
4180 273 37 -0.55 -4.78131 4.43923 -4.70125 
4181 273 8 0.51 -5.58938 6.9079 -0.828098 
4182 273 9 -0.51 -6.68508 6.40272 -0.791649 
4183 274 10 -0.47 -5.38845 8.21117 -0.495074 
4184 274 11 0.31 -4.5092 8.62137 -0.50371 
4185 274 15 -0.11 -6.38249 9.20398 -0.324302 
4186 274 6 0.09 -6.47189 9.77341 -1.23856 
4187 274 6 0.09 -7.36187 8.69007 -0.0702779 
4197 274 6 0.09 -6.07835 9.88014 0.454906 
17464 1115 38 -0.82 -3.17613 -2.44229 -8.69613 
17465 1115 39 0.41 -3.8037 -1.86309 -8.10061 
17466 1115 39 0.41 -3.40441 -3.42954 -8.35253 
17467 1116 38 -0.82 -13.3474 -9.77472 0.566407 
17468 1116 39 0.41 -13.914 -8.89341 0.485687 
17469 1116 39 0.41 -12.4549 -9.54214 0.148022 
17470 1117 38 -0.82 -0.377984 0.4157 7.65692 
17471 1117 39 0.41 -0.674831 1.14648 6.96838 
17472 1117 39 0.41 -0.44075 -0.401173 7.08077 
17473 1118 38 -0.82 -0.477432 -2.36607 -5.36665 
17474 1118 39 0.41 -1.40591 -2.81762 -5.40389 
17475 1118 39 0.41 -0.27844 -1.59225 -6.04957 
17476 1119 38 -0.82 -2.11018 -3.18117 13.0705 
17477 1119 39 0.41 -2.61098 -2.86613 -10.2622 
17478 1119 39 0.41 -2.09809 -2.43524 12.4586 
17479 1120 38 -0.82 -15.2171 -5.81298 1.45814 
17480 1120 39 0.41 -15.0759 -6.52114 0.65013 
17481 1120 39 0.41 -15.6069 -5.00829 0.971219 
17482 1121 38 -0.82 -15.7444 -2.77343 -8.51835 
17483 1121 39 0.41 -15.2059 -3.58452 -8.2263 
17484 1121 39 0.41 -15.4411 -2.36566 -9.43697 
17485 1122 38 -0.82 -7.43345 -3.03796 1.19155 
17486 1122 39 0.41 -8.17234 -2.32402 1.25139 
17487 1122 39 0.41 -6.80306 -2.59203 0.436825 
17488 1123 38 -0.82 3.52915 11.3863 -3.88862 
17489 1123 39 0.41 3.65951 10.349 -4.08769 
17490 1123 39 0.41 3.74877 11.8147 -4.75156 
17491 1124 38 -0.82 -6.78998 12.4866 4.89391 
17492 1124 39 0.41 -7.06013 -10.8009 4.57832 
17493 1124 39 0.41 -7.33754 12.0766 5.6678 
17494 1125 38 -0.82 -15.0208 5.96663 8.34731 
17495 1125 39 0.41 -14.5056 5.28423 7.78368 
17496 1125 39 0.41 -14.696 5.88402 9.31931 
17497 1126 38 -0.82 -16.1789 10.1256 0.857081 
17498 1126 39 0.41 7.66155 11.0821 0.84353 
17499 1126 39 0.41 7.60234 9.46167 0.266685 
17500 1127 38 -0.82 0.637241 0.880511 3.6166 
17501 1127 39 0.41 0.00142108 1.02959 4.38368 
17502 1127 39 0.41 0.891902 1.7182 2.96873 
17503 1128 38 -0.82 7.62725 -4.12043 5.40723 
17504 1128 39 0.41 6.99463 -3.96648 6.2525 
17505 1128 39 0.41 6.95499 -4.01323 4.60222 
17506 1129 38 -0.82 -8.33386 1.90993 4.94721 
17507 1129 39 0.41 -7.96198 2.62387 4.30384 
17508 1129 39 0.41 -8.38168 0.996881 4.46081 
17509 1130 38 -0.82 -9.87876 -4.46937 -1.15384 
17510 1130 39 0.41 -9.6045 -4.94657 -0.330345 
17511 1130 39 0.41 -10.9163 -4.32969 -1.16245 
17512 1131 38 -0.82 -10.593 6.86405 -9.35571 
17513 1131 39 0.41 -11.1339 6.70102 -8.48388 
17514 1131 39 0.41 -10.7548 6.18277 -10.1015 
17515 1132 38 -0.82 3.47673 -8.60003 -9.55538 
17516 1132 39 0.41 3.02101 -9.28056 -8.91653 
17517 1132 39 0.41 4.43364 -8.53686 -9.16376 
17518 1133 38 -0.82 5.94049 3.17441 8.53158 
17519 1133 39 0.41 5.33954 3.44939 9.31416 
17520 1133 39 0.41 6.23452 4.04467 8.07699 
17521 1134 38 -0.82 -9.695 2.89242 -8.34709 
17522 1134 39 0.41 -10.1888 2.02627 -8.54143 
17523 1134 39 0.41 -9.45253 2.78105 -7.34759 
17524 1135 38 -0.82 0.317323 10.4304 12.1894 
17525 1135 39 0.41 0.49891 11.1249 12.9111 
17526 1135 39 0.41 0.530777 9.50259 12.5793 
17527 1136 38 -0.82 -8.42977 -3.857 -4.72482 
17528 1136 39 0.41 -8.27675 -4.55887 -3.92919 
17529 1136 39 0.41 -8.15344 -4.24187 -5.64364 
17530 1137 38 -0.82 -11.3685 4.25562 1.78666 
17531 1137 39 0.41 -11.5699 3.45828 2.35666 
17532 1137 39 0.41 -10.647 4.79437 2.24953 
17533 1138 38 -0.82 7.70502 -6.67815 6.1686 
17534 1138 39 0.41 -15.6723 -7.26033 6.24961 
17535 1138 39 0.41 7.80901 -5.63126 5.95075 
17536 1139 38 -0.82 1.41981 2.56824 -3.24859 
17537 1139 39 0.41 1.52321 3.34622 -2.59409 
17538 1139 39 0.41 0.890885 2.97738 -4.05615 
17539 1140 38 -0.82 -11.0734 0.8108 -4.54786 
17540 1140 39 0.41 -11.3056 1.28489 -3.69699 
17541 1140 39 0.41 -10.6067 -0.0394292 -4.32603 
17542 1141 38 -0.82 0.405067 -6.06124 -8.09485 
17543 1141 39 0.41 -0.219081 -5.72326 -8.82894 
17544 1141 39 0.41 1.35511 -5.9738 -8.48132 
17545 1142 38 -0.82 -1.31259 -4.42509 -0.836637 
17546 1142 39 0.41 -0.803671 -4.97373 -1.59126 
17547 1142 39 0.41 -1.96366 -3.92178 -1.44031 
17548 1143 38 -0.82 3.90631 13.0102 -6.27131 
17549 1143 39 0.41 4.71048 -10.6025 -5.99872 
17550 1143 39 0.41 3.26573 -10.576 -6.64554 
17551 1144 38 -0.82 -12.9143 -4.4063 -1.48046 
17552 1144 39 0.41 -12.5365 -3.73344 -2.17519 
17553 1144 39 0.41 -13.8924 -4.2544 -1.28269 
17554 1145 38 -0.82 -13.9279 -3.55058 4.45668 
17555 1145 39 0.41 -13.364 -4.37201 4.22724 
17556 1145 39 0.41 -14.8431 -3.9514 4.69647 
17557 1146 38 -0.82 -6.85322 9.98249 3.67242 
17558 1146 39 0.41 -6.7883 10.9245 4.06546 
17559 1146 39 0.41 -6.13851 9.84971 2.86595 
17560 1147 38 -0.82 -13.8777 6.2656 0.886545 
17561 1147 39 0.41 -13.1661 5.59566 1.19165 
17562 1147 39 0.41 -13.5328 6.7114 0.0698594 
17563 1148 38 -0.82 -6.59909 -7.64866 -1.67893 
17564 1860 39 0.41 0.869146 12.4906 9.92908 
17565 1148 39 0.41 -7.21064 -7.03116 -2.20168 
17566 1148 39 0.41 -6.21586 -7.11683 -0.8811 
17567 1149 38 -0.82 -4.45161 -1.79089 9.51777 
17568 1149 39 0.41 -4.48556 -2.21256 8.61064 
17569 1149 39 0.41 -3.64529 -1.09744 9.60454 
17570 1150 38 -0.82 -9.16551 2.4997 -5.318 
17571 1150 39 0.41 -9.94164 2.01344 -4.85767 
17572 1150 39 0.41 -8.22547 2.19455 -4.97463 
17573 1151 38 -0.82 -13.8673 3.56025 -9.9608 
17574 1151 39 0.41 -14.298 2.70985 13.9438 
17575 1151 39 0.41 -13.3933 3.35897 -9.07055 
17576 1152 38 -0.82 -9.42483 -10.3294 10.8996 
17577 1152 39 0.41 -8.97971 -10.1376 9.99003 
17578 1152 39 0.41 -9.09395 -9.53655 11.442 
17579 1153 38 -0.82 3.08891 0.454366 -3.96607 
17580 1153 39 0.41 3.68924 0.503094 -3.08501 
17581 1153 39 0.41 2.27907 1.1484 -3.79355 
17582 1154 38 -0.82 -5.67013 -3.65768 -6.18472 
17583 1154 39 0.41 -6.43641 -3.12511 -5.78046 
17584 1154 39 0.41 -6.11403 -4.01109 -7.01986 
17585 1155 38 -0.82 7.99647 11.1381 -3.26152 
17586 1155 39 0.41 7.70705 11.202 -4.27404 
17587 1155 39 0.41 7.46261 10.4455 -2.85023 
17588 1156 38 -0.82 -5.51959 -4.70654 -1.84378 
17589 1156 39 0.41 -5.67949 -5.09394 -0.893479 
17590 1156 39 0.41 -6.44628 -4.83457 -2.23353 
17591 1157 38 -0.82 -13.2041 9.15553 -5.163 
17592 1157 39 0.41 -13.6486 8.98699 -4.24681 
17593 1157 39 0.41 -13.6159 8.41159 -5.75673 
17594 1158 38 -0.82 6.61156 7.78845 0.0969863 
17595 1158 39 0.41 5.83639 7.63008 0.707773 
17596 1158 39 0.41 6.95636 6.9546 -0.433839 
17597 1159 38 -0.82 -9.56773 -2.46867 4.40861 
17598 1159 39 0.41 -8.99792 -3.30101 4.54006 
17599 1159 39 0.41 -10.1381 -2.22637 5.2569 
17600 1160 38 -0.82 -1.77226 11.6845 4.22188 
17601 1160 39 0.41 -2.7614 11.649 4.30499 
17602 1160 39 0.41 -1.37292 10.8388 4.67812 
17603 1161 38 -0.82 -12.5086 10.7121 7.15707 
17604 1161 39 0.41 -11.8151 10.1175 6.7173 
17605 1161 39 0.41 -13.3064 10.1437 7.1159 
17606 1162 38 -0.82 -8.4046 -6.49769 -9.73592 
17607 1162 39 0.41 -9.07238 -5.79345 -9.36508 
17608 1162 39 0.41 -7.51774 -6.5268 -9.16681 
17609 1163 38 -0.82 -10.5404 12.4517 -3.4454 
17610 1163 39 0.41 -10.5062 11.5849 -2.98495 
17611 1163 39 0.41 -10.9563 12.1938 -4.31681 
17612 1164 38 -0.82 4.24487 13.3071 3.41462 
17613 1164 39 0.41 3.39294 12.8797 3.09628 
17614 1164 39 0.41 4.8191 -10.7421 2.64194 
17615 1165 38 -0.82 -0.541353 -6.97118 11.3153 
17616 1165 39 0.41 -0.965171 -6.18369 10.7571 
17617 1165 39 0.41 -0.612999 -6.57017 12.2741 
17618 1166 38 -0.82 6.72487 1.53406 -4.95326 
17619 1166 39 0.41 5.94981 0.983252 -4.48801 
17620 1166 39 0.41 6.68081 1.49021 -5.98056 
17621 1167 38 -0.82 2.05012 1.77514 11.3338 
17622 1167 39 0.41 2.89757 1.34715 11.6745 
17623 1167 39 0.41 1.90205 1.55984 10.3439 
17624 1168 38 -0.82 -13.8676 3.97824 -3.13775 
17625 1168 39 0.41 -13.9348 5.01874 -3.15532 
17626 1168 39 0.41 -14.7684 3.40648 -3.03803 
17627 1169 38 -0.82 -7.82574 12.6051 1.48222 
17628 1169 39 0.41 -7.34863 12.5093 2.38917 
17629 1169 39 0.41 -8.73458 12.1996 1.32718 
17630 1170 38 -0.82 4.1435 8.37752 11.45 
17631 1170 39 0.41 3.77165 9.0346 10.7167 
17632 1170 39 0.41 5.12142 8.462 11.6636 
17637 1172 38 -0.82 -12.0078 5.06171 13.1437 
17638 1172 39 0.41 -11.467 4.67137 12.3847 
17639 1172 39 0.41 -12.6066 4.34521 13.5936 
17640 1173 38 -0.82 -0.940207 -6.7528 0.377719 
17641 1173 39 0.41 -1.81596 -7.27481 0.465283 
17642 1173 39 0.41 -1.12971 -5.83769 -0.132066 
17643 1174 38 -0.82 -5.11344 5.98251 5.93714 
17644 1174 39 0.41 -4.34863 5.35316 5.62063 
17645 1174 39 0.41 -5.49807 6.33525 5.02063 
17646 1175 38 -0.82 -9.69564 9.3196 3.43281 
17647 1175 39 0.41 -9.69408 8.37853 3.12223 
17648 1175 39 0.41 -8.7131 9.4698 3.69108 
17649 1176 38 -0.82 -7.86206 -8.28672 1.70093 
17650 1176 39 0.41 -7.92113 -9.1442 1.1274 
17651 1176 39 0.41 -7.65073 -8.48668 2.67646 
17652 1177 38 -0.82 4.46447 -5.76212 4.13386 
17653 1177 39 0.41 5.40001 -6.0415 3.85518 
17654 1177 39 0.41 4.21114 -6.35593 4.93253 
17655 1178 38 -0.82 -14.9418 -7.68018 -0.396071 
17656 1178 39 0.41 -15.7395 -8.13276 -0.823213 
17657 1178 39 0.41 -14.2844 -7.45613 -1.11559 
17658 1179 38 -0.82 2.2063 -9.52996 -7.31115 
17659 1179 39 0.41 1.50599 -9.97242 -7.92788 
17660 1179 39 0.41 1.70647 -8.82283 -6.66647 
17661 1180 38 -0.82 6.9864 5.28072 6.75607 
17662 1180 39 0.41 6.38242 6.14919 6.71481 
17663 1180 39 0.41 7.86464 5.45784 7.23488 
17664 1181 38 -0.82 -14.6634 -6.39761 -6.35244 
17665 1181 39 0.41 -15.2451 -5.98401 -5.58132 
17666 1181 39 0.41 -15.2965 -6.71719 -7.11098 
17667 1182 38 -0.82 -5.1448 3.41477 9.2378 
17668 1182 39 0.41 -5.00589 4.00376 10.0864 
17669 1182 39 0.41 -5.78387 2.69203 9.54975 
17670 1183 38 -0.82 -3.37655 3.3098 2.79942 
17671 1183 39 0.41 -2.58913 2.74276 2.32885 
17672 1183 39 0.41 -3.86293 3.86372 2.07701 
17673 1184 38 -0.82 -8.53666 -1.49869 -1.45708 
17674 1184 39 0.41 -8.26535 -2.48563 -1.56122 
17675 1184 39 0.41 -8.79475 -1.33788 -0.490315 
17676 1185 38 -0.82 -11.6508 12.9372 5.50404 
17677 1185 39 0.41 -12.4848 12.9164 6.02627 
17678 1185 39 0.41 -11.8734 12.3429 4.67819 
17679 1186 38 -0.82 -6.66181 1.24014 1.01592 
17680 1186 39 0.41 -7.36395 1.4331 0.283835 
17681 1186 39 0.41 -5.90427 0.859878 0.527465 
17682 1187 38 -0.82 -9.89602 -10.0587 -6.45183 
17683 1187 39 0.41 -9.21978 -10.1814 -5.71528 
17684 1187 39 0.41 -10.4332 13.3174 -6.56375 
17685 1188 38 -0.82 -0.607481 -8.1888 4.24105 
17686 1188 39 0.41 -0.226904 -9.07124 4.64307 
17687 1188 39 0.41 0.150243 -7.58883 3.87085 
17688 1189 38 -0.82 -2.25974 8.69335 -6.67506 
17689 1189 39 0.41 -2.46929 7.73545 -7.01949 
17690 1189 39 0.41 -1.7359 8.6173 -5.81063 
17691 1190 38 -0.82 -10.7954 10.6635 9.46487 
17692 1190 39 0.41 -10.9522 11.6253 9.74607 
17693 1190 39 0.41 -11.4848 10.5472 8.66825 
17694 1191 38 -0.82 -13.5857 -2.75512 7.66205 
17695 1191 39 0.41 -13.077 -2.94207 8.52202 
17696 1191 39 0.41 -14.4938 -2.26653 7.85961 
17697 1192 38 -0.82 -14.5644 12.4543 -0.798337 
17698 1192 39 0.41 -13.8202 12.9827 -0.321708 
17699 1192 39 0.41 -14.7529 11.5164 -0.519342 
17700 1193 38 -0.82 5.09556 -2.12327 12.4249 
17701 1193 39 0.41 5.69086 -2.62783 11.7108 
17702 1193 39 0.41 4.31928 -2.73135 12.5838 
17703 1194 38 -0.82 -5.79822 -6.25713 0.333374 
17704 1194 39 0.41 -6.51899 -6.24447 1.06133 
17705 1194 39 0.41 -4.98808 -5.99612 0.916984 
17706 1195 38 -0.82 -6.33328 -1.0363 11.3874 
17707 1195 39 0.41 -5.61167 -1.45913 10.8372 
17708 1195 39 0.41 -6.89357 -1.81887 11.6949 
17709 1196 38 -0.82 2.55127 -6.52568 -2.97932 
17710 1196 39 0.41 2.07884 -6.8737 -2.15335 
17711 1196 39 0.41 1.85094 -6.04868 -3.58865 
17712 1197 38 -0.82 -5.63223 -6.66067 10.3303 
17713 1197 39 0.41 -5.10689 -5.8392 10.631 
17714 1197 39 0.41 -4.94019 -7.08566 9.70097 
17718 1199 38 -0.82 6.48981 8.84784 12.6947 
17719 1199 39 0.41 7.22358 9.43239 13.0562 
17720 1199 39 0.41 6.23073 8.17376 13.4535 
17721 1200 38 -0.82 -7.31702 10.6377 13.2682 
17722 1200 39 0.41 -7.72151 10.0476 -10.2451 
17723 1200 39 0.41 -7.91055 11.4257 13.2274 
17724 1201 38 -0.82 -8.24878 -2.78384 12.3151 
17725 1201 39 0.41 -8.04126 -3.7291 12.0173 
17726 1201 39 0.41 -9.14184 -2.48394 11.8468 
17727 1202 38 -0.82 5.41317 -5.03901 11.7777 
17728 1202 39 0.41 4.44968 -4.75811 11.9166 
17729 1202 39 0.41 5.65913 -5.68563 11.0617 
17730 1203 38 -0.82 0.816572 -3.60815 4.27091 
17731 1203 39 0.41 1.64105 -4.18914 4.4825 
17732 1203 39 0.41 1.02049 -3.16559 3.3358 
17733 1204 38 -0.82 -7.47304 -1.21192 -5.59853 
17734 1204 39 0.41 -6.86719 -0.37862 -5.34924 
17735 1204 39 0.41 -8.41418 -0.98045 -5.30477 
17745 1208 38 -0.82 -3.8344 -5.75117 2.14146 
17746 1208 39 0.41 -3.18536 -4.94175 1.89749 
17747 1208 39 0.41 -3.30664 -6.55698 1.87767 
17748 1209 38 -0.82 5.96314 -9.65493 -5.28844 
17749 1209 39 0.41 6.94814 -9.81167 -5.02351 
17750 1209 39 0.41 5.34299 -9.05695 -4.66292 
17751 1210 38 -0.82 -1.57668 1.43974 1.49685 
17752 1210 39 0.41 -1.09042 0.972577 2.21906 
17753 1210 39 0.41 -0.978663 1.87727 0.78863 
17754 1211 38 -0.82 -14.7126 -8.87537 -9.83046 
17755 1211 39 0.41 -15.358 -8.28907 -9.30604 
17756 1211 39 0.41 -13.9062 -8.32516 -10.1642 
17757 1212 38 -0.82 -12.9872 9.71897 -10.2528 
17758 1212 39 0.41 -13.8931 10.1053 13.8767 
17759 1212 39 0.41 -13.143 8.68875 13.9458 
17766 1215 38 -0.82 -1.65724 -8.62837 -8.69905 
17767 1215 39 0.41 -2.16623 -8.37276 -9.56515 
17768 1215 39 0.41 -0.788085 -8.12302 -8.72849 
17769 1216 38 -0.82 -1.50373 -5.34842 4.92839 
17770 1216 39 0.41 -1.23557 -6.25601 4.64266 
17771 1216 39 0.41 -0.622832 -4.81146 4.68785 
17772 1217 38 -0.82 6.64982 6.75297 3.38782 
17773 1217 39 0.41 7.6245 6.65732 3.1911 
17774 1217 39 0.41 6.71116 7.69993 3.80772 
17775 1218 38 -0.82 4.1343 -7.6056 6.367 
17776 1218 39 0.41 3.306 -8.15452 6.16261 
17777 1218 39 0.41 4.87486 -8.24232 6.67192 
17778 1219 38 -0.82 1.01142 11.5428 -7.40026 
17779 1219 39 0.41 2.00966 11.3869 -7.49899 
17780 1219 39 0.41 0.695117 12.273 -8.03813 
17781 1220 38 -0.82 -1.13235 6.70423 4.54516 
17782 1220 39 0.41 -0.981461 7.62444 4.94196 
17783 1220 39 0.41 -0.286218 6.23519 4.1742 
17784 1221 38 -0.82 -3.04005 1.58988 -5.39267 
17785 1221 39 0.41 -2.34197 0.992198 -5.01056 
17786 1221 39 0.41 -3.30615 1.3374 -6.30917 
17787 1222 38 -0.82 -13.1448 -0.486282 -1.42288 
17788 1222 39 0.41 -13.7023 -0.688487 -0.55815 
17789 1222 39 0.41 -12.6333 0.402978 -1.51504 
17790 1223 38 -0.82 -15.5839 4.22711 1.02839 
17791 1824 39 0.41 -11.0479 -3.29661 -6.11523 
17792 1223 39 0.41 7.84441 4.03945 0.39891 
17793 1224 38 -0.82 -15.2214 -1.23119 0.358559 
17794 1224 39 0.41 -15.7068 -2.12638 0.141654 
17795 1224 39 0.41 -15.0229 -1.2079 1.38029 
17796 1225 38 -0.82 2.3682 -8.86664 4.3128 
17797 1225 39 0.41 3.38724 -9.22043 4.26941 
17798 1225 39 0.41 1.65463 -9.58867 4.44991 
17799 1226 38 -0.82 -11.347 -6.46636 8.24304 
17800 1226 39 0.41 -11.9002 -6.01554 7.51983 
17801 1226 39 0.41 -12.0588 -7.10132 8.68905 
17802 1227 38 -0.82 2.91446 -5.50702 -6.47311 
17803 1227 39 0.41 2.78503 -5.69004 -7.4959 
17804 1227 39 0.41 3.41855 -4.59805 -6.30577 
17805 1228 38 -0.82 -13.1495 7.67087 -1.28481 
17806 1228 39 0.41 -12.6843 7.22447 -2.10866 
17807 1228 39 0.41 -13.509 8.63464 -1.51788 
17808 1229 38 -0.82 4.24228 -4.43927 -3.33571 
17809 1229 39 0.41 3.64085 -5.25658 -3.2861 
17810 1229 39 0.41 5.07834 -4.57681 -2.79918 
17811 1230 38 -0.82 4.76194 9.49988 2.2029 
17812 1230 39 0.41 4.82588 10.3333 1.59647 
17813 1230 39 0.41 5.38961 9.61536 3.01029 
17814 1231 38 -0.82 -3.1165 10.642 0.42028 
17815 1231 39 0.41 -3.35907 11.0282 -0.508787 
17816 1231 39 0.41 -2.16973 11.0427 0.565628 
17817 1232 38 -0.82 -16.1631 2.44609 -2.78516 
17818 1232 39 0.41 -16.1822 1.60679 -2.17041 
17819 1232 39 0.41 7.6974 2.11582 -3.69199 
17820 1233 38 -0.82 -12.3925 2.57982 3.63348 
17821 1233 39 0.41 -11.8656 2.70759 4.50447 
17822 1233 39 0.41 -13.2639 2.02809 3.80275 
17823 1234 38 -0.82 -8.78522 9.11893 -9.24621 
17824 1234 39 0.41 -7.96826 8.94972 -8.71405 
17825 1234 39 0.41 -9.20174 8.18403 -9.25976 
17826 1235 38 -0.82 -2.87704 -8.15141 13.2825 
17827 1235 39 0.41 -2.85953 -9.00465 12.7368 
17828 1235 39 0.41 -3.89489 -7.98817 13.3596 
17829 1236 38 -0.82 -10.5016 7.38311 0.476427 
17830 1236 39 0.41 -9.86437 7.16596 -0.340896 
17831 1236 39 0.41 -11.273 7.87922 0.036471 
17832 1237 38 -0.82 1.86899 1.58871 8.51249 
17833 1237 39 0.41 2.58007 1.16946 7.96233 
17834 1237 39 0.41 1.06339 0.903415 8.3478 
17835 1238 38 -0.82 -11.922 4.14332 -5.40357 
17836 1238 39 0.41 -12.6972 3.82794 -4.78359 
17837 1238 39 0.41 -11.6224 3.30216 -5.85044 
17838 1239 38 -0.82 -4.28878 11.5085 4.96275 
17839 1239 39 0.41 -3.85147 12.2596 5.56814 
17840 1239 39 0.41 -5.22588 11.8477 4.6799 
17841 1240 38 -0.82 -10.0576 -9.06074 5.26105 
17842 1240 39 0.41 -10.4958 -8.33864 4.66767 
17843 1240 39 0.41 -10.7586 -9.78561 5.44088 
17844 1241 38 -0.82 -8.21723 -4.7121 5.05269 
17845 1241 39 0.41 -7.247 -4.89898 4.69291 
17846 1241 39 0.41 -8.53317 -5.59604 5.48766 
17847 1242 38 -0.82 -9.23141 12.5024 13.0254 
17848 1242 39 0.41 -9.31882 12.9221 12.0783 
17849 1242 39 0.41 -9.93978 12.8455 13.6515 
17850 1243 38 -0.82 -4.69346 6.17001 -9.14961 
17851 1243 39 0.41 -4.70739 5.27215 -8.70958 
17852 1243 39 0.41 -5.42594 6.20835 -9.92427 
17853 1244 38 -0.82 -9.76275 -1.42439 -3.86771 
17854 1244 39 0.41 -9.48886 -1.37383 -2.84216 
17855 1244 39 0.41 -9.4051 -2.32897 -4.17272 
17856 1245 38 -0.82 -15.9971 -5.84676 -3.73419 
17857 1245 39 0.41 -15.5609 -4.9251 -3.80998 
17858 1245 39 0.41 -15.1954 -6.43547 -3.42302 
17859 1246 38 -0.82 3.16081 6.80003 5.48668 
17860 1246 39 0.41 3.99917 7.03828 6.03453 
17861 1246 39 0.41 3.41507 7.15941 4.56188 
17862 1247 38 -0.82 -12.8069 -8.49166 9.38447 
17863 1247 39 0.41 -12.6536 -9.39834 8.94292 
17864 1247 39 0.41 -12.8592 -8.62472 10.4226 
17865 1248 38 -0.82 -4.93349 2.52422 4.99031 
17866 1248 39 0.41 -4.33208 2.99297 4.3489 
17867 1248 39 0.41 -5.85213 2.71401 4.70226 
17868 1249 38 -0.82 -12.6788 12.0709 12.7813 
17869 1249 39 0.41 -12.5896 11.1953 13.2949 
17870 1249 39 0.41 -13.2763 12.7193 13.3207 
17871 1250 38 -0.82 7.46274 1.76715 -9.34736 
17872 1250 39 0.41 -15.9392 2.05774 -8.84364 
17873 1250 39 0.41 7.05959 0.928902 -8.86923 
17874 1251 38 -0.82 3.22455 8.74769 -10.1731 
17875 1251 39 0.41 3.06942 7.76933 -9.85453 
17876 1251 39 0.41 3.57089 8.7872 13.0837 
17877 1252 38 -0.82 -7.20477 -9.6005 -8.82955 
17878 1252 39 0.41 -6.63922 -10.42 -9.0069 
17879 1252 39 0.41 -7.76764 -9.81884 -8.07133 
17880 1253 38 -0.82 -15.3032 12.64 -9.17298 
17881 1253 39 0.41 -14.9076 12.7796 -8.25031 
17882 1253 39 0.41 -15.1401 -10.6779 -9.6384 
17883 1254 38 -0.82 1.00475 -1.56385 2.36566 
17884 1254 39 0.41 0.0301182 -1.87325 2.42812 
17885 1254 39 0.41 1.1636 -0.687891 2.96345 
17886 1255 38 -0.82 4.33166 6.28246 9.66939 
17887 1255 39 0.41 4.39724 6.94546 10.4636 
17888 1255 39 0.41 4.27126 5.29046 9.98769 
17889 1256 38 -0.82 0.921628 3.91835 7.45606 
17890 1256 39 0.41 1.20646 3.20962 8.09597 
17891 1256 39 0.41 1.15257 4.89278 7.72971 
17892 1257 38 -0.82 -8.10384 -5.38845 11.4482 
17893 1257 39 0.41 -8.35268 -5.77161 12.3687 
17894 1257 39 0.41 -7.45168 -5.96543 10.962 
17895 1258 38 -0.82 -2.41943 13.0834 -5.50494 
17896 1258 39 0.41 -1.53622 -10.8125 -5.84431 
17897 1258 39 0.41 -2.35892 12.596 -4.60872 
17898 1259 38 -0.82 -8.15941 -1.44291 7.52948 
17899 1259 39 0.41 -7.23813 -1.01842 7.34084 
17900 1259 39 0.41 -7.9007 -2.45521 7.62091 
17901 1260 38 -0.82 -15.9088 11.1765 5.12085 
17902 1260 39 0.41 -15.5732 11.0645 6.05199 
17903 1260 39 0.41 -15.1862 11.329 4.38799 
17910 1263 38 -0.82 -4.82662 -9.7548 -5.72893 
17911 1263 39 0.41 -3.98936 -10.1822 -6.09532 
17912 1263 39 0.41 -5.17773 -10.5196 -5.03683 
17913 1264 38 -0.82 -3.57781 -3.33513 0.901586 
17914 1264 39 0.41 -2.89644 -3.84428 0.330466 
17915 1264 39 0.41 -4.33836 -3.07137 0.286281 
17916 1265 38 -0.82 -6.89016 5.30362 7.88037 
17917 1265 39 0.41 -6.20602 5.63077 7.12934 
17918 1265 39 0.41 -6.41513 4.63687 8.48114 
17919 1266 38 -0.82 -5.40775 -9.92321 12.0006 
17920 1266 39 0.41 -5.54821 -8.98931 12.4887 
17921 1266 39 0.41 -5.46241 -10.559 12.8286 
17922 1267 38 -0.82 -0.712395 -0.580246 -7.81613 
17923 1267 39 0.41 -1.09396 -0.00540974 -8.56128 
17924 1267 39 0.41 -1.3156 -1.4225 -7.66977 
17925 1268 38 -0.82 -12.3889 -7.97395 11.9944 
17926 1268 39 0.41 -11.7023 -7.48541 11.4405 
17927 1268 39 0.41 -12.0304 -7.88394 12.9737 
17937 1272 38 -0.82 -11.737 2.31649 -2.41175 
17938 1272 39 0.41 -12.4626 2.92851 -2.84552 
17939 1272 39 0.41 -11.2333 2.84317 -1.75814 
17940 1273 38 -0.82 -11.2199 6.15717 5.08811 
17941 1273 39 0.41 -10.6913 6.21198 4.20786 
17942 1273 39 0.41 -10.4973 5.91659 5.78326 
17943 1274 38 -0.82 5.1382 -9.43174 12.4525 
17944 1274 39 0.41 4.70793 -10.1453 11.8071 
17945 1274 39 0.41 4.4765 -9.17423 13.1424 
17946 1275 38 -0.82 5.98298 6.63742 -9.91592 
17947 1275 39 0.41 4.98495 6.7257 -9.63625 
17948 1275 39 0.41 6.01513 5.6472 -10.0455 
17949 1276 38 -0.82 -7.21015 4.16871 -3.5026 
17950 1276 39 0.41 -6.39715 4.17733 -4.23906 
17951 1276 39 0.41 -8.08377 4.61468 -3.86854 
17961 1280 38 -0.82 -1.09319 -8.37052 -5.54916 
17962 1280 39 0.41 -1.57698 -8.3655 -6.4387 
17963 1280 39 0.41 -0.0915553 -8.06387 -5.51336 
17964 1281 38 -0.82 -7.19687 -2.66842 -9.47272 
17965 1281 39 0.41 -6.48739 -1.86823 -9.4848 
17966 1281 39 0.41 -7.57142 -2.69198 13.8476 
17967 1282 38 -0.82 -5.03413 4.7301 11.4285 
17968 1282 39 0.41 -4.3515 5.55875 11.2827 
17969 1282 39 0.41 -5.77777 5.13377 11.9956 
17970 1283 38 -0.82 -3.17502 -9.23093 4.36191 
17971 1283 39 0.41 -2.41103 -8.60457 4.55735 
17972 1283 39 0.41 -2.84073 -10.252 4.60096 
17973 1284 38 -0.82 5.77515 9.51708 -2.28911 
17974 1284 39 0.41 5.48445 8.83716 -1.52914 
17975 1284 39 0.41 5.1463 9.50271 -3.06661 
17976 1285 38 -0.82 4.94455 -3.75628 -5.987 
17977 1285 39 0.41 4.79589 -4.19948 -5.05391 
17978 1285 39 0.41 5.66761 -4.27086 -6.53427 
17979 1286 38 -0.82 7.99191 0.198058 6.37036 
17980 1286 39 0.41 7.33829 -0.0111658 5.59706 
17981 1286 39 0.41 -16.0024 -0.709591 6.71857 
17982 1287 38 -0.82 -10.5784 0.32466 12.3455 
17983 1287 39 0.41 -9.88535 0.776915 11.7078 
17984 1287 39 0.41 -10.5467 -0.675001 12.0357 
17985 1288 38 -0.82 1.34818 9.65193 6.37131 
17986 1288 39 0.41 1.88455 9.474 5.53968 
17987 1288 39 0.41 1.74696 10.4463 6.89974 
17988 1289 38 -0.82 -9.45249 5.25879 6.89519 
17989 1289 39 0.41 -8.46616 5.33468 7.17174 
17990 1289 39 0.41 -10.05 5.11067 7.76291 
17991 1290 38 -0.82 0.278316 12.5845 -2.18536 
17992 1290 39 0.41 1.02724 12.0579 -1.77056 
17993 1290 39 0.41 0.614782 12.86 -3.09334 
17994 1291 38 -0.82 -6.26421 8.15879 -7.5292 
17995 1291 39 0.41 -5.68578 7.6228 -8.19207 
17996 1291 39 0.41 -6.95687 7.61768 -6.98074 
17997 1292 38 -0.82 -4.74343 -9.58099 -1.04256 
17998 1292 39 0.41 -4.06248 -9.31088 -1.75809 
17999 1292 39 0.41 -5.56144 -8.88774 -0.934362 
18000 1293 38 -0.82 -0.657605 -9.45256 10.2163 
18001 1293 39 0.41 -0.738077 -8.50802 10.6194 
18002 1293 39 0.41 -1.6231 -9.79308 10.2623 
18003 1294 38 -0.82 0.567341 1.73564 -0.639748 
18004 1294 39 0.41 0.512702 0.670396 -0.612369 
18005 1294 39 0.41 0.835668 2.14852 -1.55831 
18006 1295 38 -0.82 -9.09705 -0.774132 1.07955 
18007 1295 39 0.41 -8.67446 -0.376144 1.979 
18008 1295 39 0.41 -10.029 -0.372334 0.921211 
18009 1296 38 -0.82 4.64716 2.38912 4.73182 
18010 1296 39 0.41 3.93851 3.0757 5.07213 
18011 1296 39 0.41 5.27237 2.8262 4.01332 
18012 1297 38 -0.82 -6.46987 12.655 -0.876856 
18013 1297 39 0.41 -6.98488 12.7007 0.0590929 
18014 1297 39 0.41 -5.71112 13.3523 -0.992852 
18015 1298 38 -0.82 4.63624 -8.07227 -3.46588 
18016 1298 39 0.41 4.29412 -8.87961 -2.97342 
18017 1298 39 0.41 3.87357 -7.37295 -3.35007 
18018 1299 38 -0.82 4.86668 0.869539 -1.92264 
18019 1299 39 0.41 4.87608 1.8524 -1.48963 
18020 1299 39 0.41 5.77069 0.515547 -1.6911 
18021 1300 38 -0.82 -0.202128 9.18617 8.71038 
18022 1300 39 0.41 0.20447 9.91593 9.2536 
18023 1300 39 0.41 0.185453 9.21224 7.75747 
18024 1301 38 -0.82 -16.11 -2.2392 8.3678 
18025 1301 39 0.41 7.3261 -1.68483 8.63653 
18026 1301 39 0.41 7.58167 -3.10512 8.11034 
18027 1302 38 -0.82 2.45502 11.258 -1.37128 
18028 1302 39 0.41 3.28782 11.719 -0.93087 
18029 1302 39 0.41 2.8424 11.1208 -2.33939 
18030 1303 38 -0.82 -5.97519 -0.000103663 6.85618 
18031 1303 39 0.41 -5.74224 0.712005 6.15638 
18032 1303 39 0.41 -5.52972 -0.855462 6.74031 
18033 1304 38 -0.82 -14.2127 9.91181 2.75551 
18034 1304 39 0.41 -14.8103 9.94552 1.92286 
18035 1304 39 0.41 -14.8278 9.51337 3.48765 
18036 1305 38 -0.82 -1.18731 6.0796 -0.749891 
18037 1305 39 0.41 -1.79368 5.27969 -0.587088 
18038 1305 39 0.41 -0.850022 6.44985 0.135613 
18039 1306 38 -0.82 1.58441 5.00881 -1.91576 
18040 1306 39 0.41 2.10731 5.77725 -2.39648 
18041 1306 39 0.41 0.556554 5.05704 -1.78153 
18042 1307 38 -0.82 -15.4277 2.07179 3.00332 
18043 1307 39 0.41 -15.6939 2.59028 3.82236 
18044 1307 39 0.41 -15.3314 2.69536 2.23199 
18045 1308 38 -0.82 -0.29276 -9.88912 1.82125 
18046 1308 39 0.41 0.135634 -9.29544 1.15177 
18047 1308 39 0.41 -0.794383 -9.29745 2.38476 
18048 1309 38 -0.82 -13.9764 4.02711 10.7767 
18049 1309 39 0.41 -13.4274 3.29214 10.4693 
18050 1309 39 0.41 -14.014 4.03471 11.7654 
18051 1310 38 -0.82 -14.2681 -5.28731 -10.202 
18052 1310 39 0.41 -13.3964 -5.12817 13.5824 
18053 1310 39 0.41 -14.0498 -5.12894 -9.22355 
18054 1311 38 -0.82 -3.73801 -0.200139 0.293519 
18055 1311 39 0.41 -2.91022 -0.328047 -0.340133 
18056 1311 39 0.41 -3.27006 0.299277 1.06945 
18057 1312 38 -0.82 5.89494 -2.20233 -9.38409 
18058 1312 39 0.41 6.72227 -2.47313 -8.87657 
18059 1312 39 0.41 5.91728 -2.12246 13.835 
18060 1313 38 -0.82 0.49922 6.24115 10.4369 
18061 1313 39 0.41 0.835099 6.06923 9.51821 
18062 1313 39 0.41 0.219709 7.24241 10.3994 
18063 1314 38 -0.82 -9.00125 -7.73065 -3.85628 
18064 1314 39 0.41 -9.11158 -7.59389 -4.89295 
18065 1314 39 0.41 -8.63692 -8.65145 -3.65956 
18066 1315 38 -0.82 -15.6613 10.0781 -9.82597 
18067 1315 39 0.41 -15.6347 11.125 -9.85766 
18068 1315 39 0.41 -16.1221 9.8108 -9.00861 
18069 1316 38 -0.82 7.61126 4.37611 11.1735 
18070 1316 39 0.41 7.39018 5.41562 11.0068 
18071 1316 39 0.41 -15.8707 4.19525 10.5384 
18072 1317 38 -0.82 -1.46136 1.44111 -9.49247 
18073 1317 39 0.41 -1.96803 2.39302 -9.514 
18074 1317 39 0.41 -0.54851 1.78346 -9.70272 
18081 1320 38 -0.82 -3.85292 6.83176 8.48517 
18082 1320 39 0.41 -4.06146 6.18747 7.66377 
18083 1320 39 0.41 -4.44264 7.66547 8.31508 
18084 1321 38 -0.82 -5.61595 3.85348 -7.59649 
18085 1321 39 0.41 -5.11633 3.09236 -8.09013 
18086 1321 39 0.41 -5.64125 3.61886 -6.64786 
18087 1322 38 -0.82 -15.698 1.72334 8.55079 
18088 1322 39 0.41 -15.9394 0.968824 7.86395 
18089 1322 39 0.41 7.6469 2.33608 8.57591 
18090 1323 38 -0.82 -0.596427 7.58478 1.37198 
18091 1323 39 0.41 -0.0653687 6.89249 1.84979 
18092 1323 39 0.41 -0.00377805 7.99135 0.732634 
18093 1324 38 -0.82 -12.2329 -8.01914 -6.35896 
18094 1324 39 0.41 -12.425 -8.64512 -7.12694 
18095 1324 39 0.41 -13.0231 -7.4803 -6.14166 
18105 1328 38 -0.82 -1.50343 10.8595 -3.56322 
18106 1328 39 0.41 -1.12582 9.93733 -3.87396 
18107 1328 39 0.41 -0.881623 11.5045 -3.12854 
18108 1329 38 -0.82 1.37468 -4.02576 -4.46895 
18109 1329 39 0.41 1.74235 -4.63677 -5.23969 
18110 1329 39 0.41 0.573194 -3.44369 -4.7357 
18111 1330 38 -0.82 -8.79758 6.78438 -6.7987 
18112 1330 39 0.41 -9.80777 6.90726 -6.96541 
18113 1330 39 0.41 -8.48946 6.09972 -7.52496 
18114 1331 38 -0.82 7.29322 -6.98778 10.8103 
18115 1331 39 0.41 7.39489 -6.89527 11.8414 
18116 1331 39 0.41 7.38454 -7.98153 10.5463 
18117 1332 38 -0.82 3.7363 6.08578 2.76292 
18118 1332 39 0.41 4.5958 6.44099 3.15403 
18119 1332 39 0.41 3.52654 6.73861 1.9595 
18129 1336 38 -0.82 7.52056 7.02836 10.7145 
18130 1336 39 0.41 -16.0126 7.60834 10.3208 
18131 1336 39 0.41 7.12092 7.61417 11.4843 
18132 1337 38 -0.82 -14.6346 10.6603 11.1993 
18133 1337 39 0.41 -13.9042 11.1703 11.6544 
18134 1337 39 0.41 -14.3815 9.66032 11.1663 
18135 1338 38 -0.82 6.93991 -8.27976 -1.76316 
18136 1338 39 0.41 7.24068 -9.25399 -1.82344 
18137 1338 39 0.41 6.34139 -8.11724 -2.54537 
18138 1339 38 -0.82 6.92089 1.35126 12.0507 
18139 1339 39 0.41 7.23303 1.62112 12.9889 
18140 1339 39 0.41 7.58095 1.82287 11.3442 
18141 1340 38 -0.82 4.12082 8.77633 -4.63861 
18142 1340 39 0.41 3.64403 7.95474 -4.28188 
18143 1340 39 0.41 4.23485 8.8083 -5.62993 
18153 1344 38 -0.82 -8.18393 9.8181 9.15975 
18154 1344 39 0.41 -9.19586 10.0215 9.34216 
18155 1344 39 0.41 -8.00616 8.8398 9.2245 
18156 1345 38 -0.82 -6.29041 -7.09699 -8.12665 
18157 1345 39 0.41 -6.58444 -8.00261 -8.50948 
18158 1345 39 0.41 -5.43351 -7.37075 -7.63167 
18159 1346 38 -0.82 2.69577 -10.3674 0.0948865 
18160 1346 39 0.41 2.99577 -9.58695 0.668988 
18161 1346 39 0.41 2.29744 13.0975 0.674458 
18162 1347 38 -0.82 6.79316 -9.59961 9.44425 
18163 1347 39 0.41 6.73953 -10.4668 10.0117 
18164 1347 39 0.41 7.47803 -9.56295 8.73042 
18165 1348 38 -0.82 -11.1495 -8.0661 -9.97074 
18166 1348 39 0.41 -11.2413 -9.07342 -9.79712 
18167 1348 39 0.41 -10.1377 -7.84106 -9.94821 