ITEM: TIMESTEP
0
ITEM: NUMBER OF ATOMS
1429
ITEM: BOX BOUNDS pp pp pp
-1.2124689999999999e+01 1.2124689999999999e+01
-1.2124689999999999e+01 1.2124689999999999e+01
-1.2124689999999999e+01 1.2124689999999999e+01
ITEM: ATOMS id mol type q x y z 
1 1 9 0.51 -9.30679 -5.02308 -6.86834 
2 1 16 -0.51 -9.54083 -5.46354 -8.00536 
3 1 15 -0.47 -9.88183 -3.91176 -6.34743 
4 1 5 0.31 -9.69245 -3.55683 -5.3841 
5 1 13 -0.11 -10.8937 -3.18294 -7.05535 
6 1 8 0.09 -10.593 -2.23592 -7.49615 
7 1 8 0.09 -11.2392 -3.8231 -7.90431 
8 1 8 0.09 -11.6819 -3.07656 -6.28574 
9 1 13 -0.27 -7.55334 -9.00923 -8.00132 
10 1 8 0.09 -7.36261 -10.0981 -7.66352 
11 1 8 0.09 -6.68977 -8.76081 -8.62041 
12 1 8 0.09 -8.4688 -9.15467 -8.68571 
13 1 9 0.51 -7.8228 -8.09078 -6.85534 
14 1 16 -0.51 -7.77671 -8.55819 -5.72578 
15 1 15 -0.47 -8.06903 -6.7783 -7.13225 
16 1 5 0.31 -8.204 -6.39786 -8.07189 
17 1 10 0.07 -8.31827 -5.79097 -6.07204 
18 1 6 0.09 -8.82392 -6.15865 -5.23472 
19 1 12 -0.18 -7.04217 -5.09226 -5.67617 
20 1 7 0.09 -6.31113 -5.85603 -5.36836 
21 1 7 0.09 -6.63681 -4.57589 -6.57178 
22 1 11 -0.28 -7.10316 -4.14373 -4.39703 
23 1 7 0.09 -6.11702 -3.62641 -4.15496 
24 1 7 0.09 -7.95642 -3.34513 -4.53985 
25 1 14 0.62 -7.38703 -4.8186 -3.05008 
26 1 17 -0.76 -8.50052 -4.60425 -2.51136 
27 1 17 -0.76 -6.47023 -5.51201 -2.448 
28 2 3 -0.32 -4.77284 -5.45697 -0.628426 
29 2 4 0.44 -5.55664 -5.51369 -1.5046 
30 2 4 0.44 -4.21167 -6.29833 -0.371702 
31 2 4 0.44 -4.23734 -4.52061 -0.758486 
32 3 2 -0.82 -11.893 -11.1642 -4.76481 
33 3 1 0.41 11.5552 -10.533 -4.86707 
34 3 1 0.41 11.9596 12.1092 -4.76058 
35 4 2 -0.82 1.3621 -3.32758 -3.12276 
36 4 1 0.41 1.86485 -3.0666 -3.96504 
37 4 1 0.41 1.01156 -2.4352 -2.83743 
38 5 2 -0.82 1.97383 0.414012 -0.835174 
39 5 1 0.41 2.01245 -0.449742 -0.28593 
40 5 1 0.41 2.04627 -0.014809 -1.7542 
41 6 2 -0.82 9.66859 -4.32524 -5.35848 
42 6 1 0.41 10.5303 -4.24451 -4.79325 
43 6 1 0.41 9.0381 -3.60883 -5.02416 
44 7 2 -0.82 -0.811038 11.2423 -8.60039 
45 7 1 0.41 -0.133684 11.8374 -8.21103 
46 7 1 0.41 -0.248985 10.4735 -8.97428 
47 8 2 -0.82 7.652 -6.95459 1.8423 
48 8 1 0.41 7.8873 -7.12465 0.844532 
49 8 1 0.41 6.82039 -6.30967 1.77937 
50 9 2 -0.82 -0.532477 0.365055 -8.9623 
51 9 1 0.41 -0.294263 0.0786134 -8.03334 
52 9 1 0.41 -1.54848 0.294671 -9.06223 
53 10 2 -0.82 5.76332 -2.56677 6.73389 
54 10 1 0.41 5.55832 -3.43669 6.20868 
55 10 1 0.41 5.91078 -2.87311 7.70522 
56 11 2 -0.82 -4.14977 0.505984 8.65918 
57 11 1 0.41 -4.05956 1.48777 9.00147 
58 11 1 0.41 -4.50409 -0.137756 9.39855 
59 12 2 -0.82 -4.42981 4.57997 12.0704 
60 12 1 0.41 -4.32694 3.93307 11.2749 
61 12 1 0.41 -3.7977 4.51691 -11.379 
62 13 2 -0.82 2.73149 -5.87052 -4.6555 
63 13 1 0.41 3.70322 -5.73311 -4.83312 
64 13 1 0.41 2.56348 -6.88156 -4.75195 
65 14 2 -0.82 -2.7993 -9.43486 9.23898 
66 14 1 0.41 -3.57919 -10.1431 9.26701 
67 14 1 0.41 -2.69328 -8.90489 8.36576 
68 15 2 -0.82 10.2648 5.60989 -2.35273 
69 15 1 0.41 11.1691 5.78145 -2.74742 
70 15 1 0.41 9.77143 6.46264 -2.54602 
71 16 2 -0.82 -7.12456 11.5497 -6.12465 
72 16 1 0.41 -8.08229 11.843 -6.19036 
73 16 1 0.41 -6.72906 -11.9536 -5.54717 
74 17 2 -0.82 6.92217 -3.26419 -7.26592 
75 17 1 0.41 5.97098 -3.26321 -7.59636 
76 17 1 0.41 7.57938 -2.89568 -7.90683 
77 18 2 -0.82 -2.95237 9.19454 -2.25521 
78 18 1 0.41 -2.03636 9.58945 -2.35369 
79 18 1 0.41 -3.39973 9.05381 -3.17851 
80 19 2 -0.82 8.67987 -1.28763 -8.37768 
81 19 1 0.41 8.75693 -1.02156 -7.38199 
82 19 1 0.41 9.72911 -1.25692 -8.61032 
83 20 2 -0.82 7.98191 1.03585 0.862682 
84 20 1 0.41 8.56899 0.310359 1.29208 
85 20 1 0.41 7.40822 1.57825 1.51822 
86 21 2 -0.82 -9.30693 -10.3254 -2.46382 
87 21 1 0.41 -10.2594 -10.4499 -2.81785 
88 21 1 0.41 -9.06009 -9.29544 -2.59491 
89 22 2 -0.82 10.2083 4.71308 -7.23863 
90 22 1 0.41 9.48995 4.99846 -6.54477 
91 22 1 0.41 11.1817 5.03258 -6.864 
92 23 2 -0.82 4.05966 -8.0113 1.62412 
93 23 1 0.41 4.96013 -8.51007 1.96594 
94 23 1 0.41 4.12748 -7.00652 1.59571 
95 24 2 -0.82 -12.0682 -0.753367 -0.876459 
96 24 1 0.41 -11.9802 -1.66838 -0.423391 
97 24 1 0.41 -11.2296 -0.163122 -0.529642 
98 25 2 -0.82 -6.06554 -1.03817 -8.16607 
99 25 1 0.41 -6.20808 -0.472551 -7.34846 
100 25 1 0.41 -5.18857 -1.52366 -8.00842 
101 26 2 -0.82 6.52473 -9.47658 -5.56511 
102 26 1 0.41 5.86954 -8.66178 -5.34119 
103 26 1 0.41 7.12428 -9.21394 -6.39907 
104 27 2 -0.82 -9.46971 1.6592 2.88386 
105 27 1 0.41 -9.38246 0.784742 3.46076 
106 27 1 0.41 -8.54992 2.06823 2.93368 
107 28 2 -0.82 8.90368 -4.41507 -0.54974 
108 28 1 0.41 8.5778 -5.321 -0.912985 
109 28 1 0.41 8.81308 -3.68497 -1.31969 
110 29 2 -0.82 -1.17651 -11.4731 -2.29116 
111 29 1 0.41 -1.15144 -11.2031 -1.31813 
112 29 1 0.41 -2.04625 -10.9844 -2.60686 
113 30 2 -0.82 2.81061 11.79 6.61894 
114 30 1 0.41 2.70999 10.8359 6.29344 
115 30 1 0.41 2.53752 11.8204 7.63805 
116 31 2 -0.82 -8.3506 8.11526 -2.82457 
117 31 1 0.41 -8.42873 7.28542 -2.24424 
118 31 1 0.41 -8.41702 8.95004 -2.26712 
119 32 2 -0.82 -3.62851 11.1686 2.47881 
120 32 1 0.41 -4.30747 11.3393 1.68821 
121 32 1 0.41 -2.68672 11.0377 2.10283 
122 33 2 -0.82 -4.60958 9.93647 -0.219712 
123 33 1 0.41 -3.9476 9.51541 -0.924893 
124 33 1 0.41 -5.29285 9.25809 0.0932144 
125 34 2 -0.82 -2.1874 -4.41436 9.97889 
126 34 1 0.41 -1.20632 -4.70819 10.152 
127 34 1 0.41 -2.47946 -4.95493 9.11922 
128 35 2 -0.82 11.0658 5.66764 -9.67756 
129 35 1 0.41 10.8446 5.32922 -8.76254 
130 35 1 0.41 11.1804 4.85473 -10.3215 
131 36 2 -0.82 -5.56035 -8.5605 8.74782 
132 36 1 0.41 -5.47307 -8.08903 7.84068 
133 36 1 0.41 -5.48292 -9.53589 8.51904 
134 37 2 -0.82 9.87371 -10.217 -2.45288 
135 37 1 0.41 8.90979 -10.5726 -2.17954 
136 37 1 0.41 10.4512 -10.6488 -1.73108 
137 38 2 -0.82 2.50727 8.88156 6.04752 
138 38 1 0.41 3.2327 8.12694 6.1541 
139 38 1 0.41 2.40829 9.02011 5.00359 
140 39 2 -0.82 -11.6768 -9.13423 5.5918 
141 39 1 0.41 11.5989 -8.84068 5.41704 
142 39 1 0.41 -11.4184 -9.99042 5.0821 
143 40 2 -0.82 -1.66082 -5.96634 -1.4064 
144 40 1 0.41 -1.41401 -6.58206 -2.1811 
145 40 1 0.41 -0.925557 -5.28707 -1.4303 
146 41 2 -0.82 10.721 -2.8555 8.45195 
147 41 1 0.41 10.2635 -1.93009 8.45023 
148 41 1 0.41 11.4677 -2.74985 7.75752 
149 42 2 -0.82 2.40421 -3.39474 -5.80192 
150 42 1 0.41 2.2712 -3.65677 -6.78055 
151 42 1 0.41 2.16288 -4.30166 -5.28358 
152 43 2 -0.82 2.79629 6.87297 9.75744 
153 43 1 0.41 3.65845 7.40872 10.0549 
154 43 1 0.41 2.16044 7.49346 9.25322 
155 44 2 -0.82 -4.35409 5.29118 6.38149 
156 44 1 0.41 -4.98985 4.52756 6.71299 
157 44 1 0.41 -3.50728 5.00149 5.93659 
158 45 2 -0.82 -7.73609 0.972528 -10.3151 
159 45 1 0.41 -8.03803 0.60049 -11.2034 
160 45 1 0.41 -7.58709 0.113271 -9.72301 
161 46 2 -0.82 11.0997 -0.998855 -8.80242 
162 46 1 0.41 11.3745 -0.245079 -8.1758 
163 46 1 0.41 11.9919 -1.1737 -9.30387 
164 47 2 -0.82 -2.52643 12.0692 4.79502 
165 47 1 0.41 -2.78189 -11.2119 4.99451 
166 47 1 0.41 -3.11336 11.7607 4.00167 
167 48 2 -0.82 0.454043 -7.41333 -8.1592 
168 48 1 0.41 0.822835 -7.75408 -9.00163 
169 48 1 0.41 0.324987 -8.2212 -7.55602 
170 49 2 -0.82 5.35571 10.8159 6.71231 
171 49 1 0.41 6.02581 10.7378 5.93819 
172 49 1 0.41 4.44738 11.2159 6.45954 
173 50 2 -0.82 -6.58341 0.267086 -5.93728 
174 50 1 0.41 -7.32121 0.0872455 -5.20762 
175 50 1 0.41 -6.41464 1.26803 -6.0676 
176 51 2 -0.82 5.71467 -12.1229 0.191453 
177 51 1 0.41 5.76725 11.4394 0.953611 
178 51 1 0.41 4.71235 -12.0377 -0.0914725 
179 52 2 -0.82 1.1769 -1.13109 8.78644 
180 52 1 0.41 0.205204 -0.998886 9.03526 
181 52 1 0.41 1.37452 -2.12529 8.48838 
182 53 2 -0.82 5.62983 -5.11082 2.41003 
183 53 1 0.41 6.27575 -4.3038 2.46485 
184 53 1 0.41 5.24947 -5.21855 3.37049 
185 54 2 -0.82 6.46594 6.08908 10.9829 
186 54 1 0.41 6.12399 6.48076 10.1047 
187 54 1 0.41 7.4649 6.30643 11.1529 
188 55 2 -0.82 -2.08951 5.14807 1.70122 
189 55 1 0.41 -1.209 4.55864 1.84713 
190 55 1 0.41 -2.01003 6.12288 1.45895 
191 56 2 -0.82 5.57312 0.466892 -7.30643 
192 56 1 0.41 5.44539 -0.167417 -6.48401 
193 56 1 0.41 4.9028 1.20216 -7.46291 
194 57 2 -0.82 7.0579 -0.0886166 9.55098 
195 57 1 0.41 6.95856 -0.937375 10.1532 
196 57 1 0.41 7.03038 0.660499 10.2592 
197 58 2 -0.82 -3.54243 0.0591661 -9.97562 
198 58 1 0.41 -4.23911 0.737633 -9.72246 
199 58 1 0.41 -3.85889 -0.909246 -10.0734 
200 59 2 -0.82 9.00245 0.905497 6.16844 
201 59 1 0.41 8.88323 1.12888 7.14854 
202 59 1 0.41 9.7135 1.51595 5.76194 
203 60 2 -0.82 5.91351 -7.60253 11.4899 
204 60 1 0.41 6.30142 -7.93144 -11.9342 
205 60 1 0.41 6.75606 -7.16206 11.0694 
206 61 2 -0.82 -4.95413 5.25432 -4.66756 
207 61 1 0.41 -4.30903 4.6504 -4.2254 
208 61 1 0.41 -4.53696 5.47598 -5.55475 
209 62 2 -0.82 8.15703 4.9373 2.38256 
210 62 1 0.41 7.62232 5.58452 3.04852 
211 62 1 0.41 7.59996 4.00241 2.3318 
212 63 2 -0.82 12.0234 11.0107 8.41065 
213 63 1 0.41 11.1258 11.0556 8.93082 
214 63 1 0.41 -11.6178 11.5619 9.04111 
215 64 2 -0.82 11.7946 8.17231 7.12524 
216 64 1 0.41 11.7233 9.14679 7.34546 
217 64 1 0.41 -11.5143 7.90654 6.79926 
218 65 2 -0.82 -0.121636 2.61838 11.3463 
219 65 1 0.41 -0.869024 1.88535 11.2687 
220 65 1 0.41 -0.099151 2.94761 -11.966 
221 66 2 -0.82 -6.99711 0.671064 5.29069 
222 66 1 0.41 -7.21994 1.67003 5.39085 
223 66 1 0.41 -7.88793 0.241263 5.18097 
224 67 2 -0.82 -0.604035 -9.83577 -6.96388 
225 67 1 0.41 -1.16343 -9.61914 -7.78517 
226 67 1 0.41 -1.12407 -9.43123 -6.15522 
227 68 2 -0.82 -9.7971 -11.2917 -6.7534 
228 68 1 0.41 -10.3511 -11.0568 -5.93029 
229 68 1 0.41 -10.0917 -10.5141 -7.37137 
230 69 2 -0.82 -7.95719 7.12502 -9.33184 
231 69 1 0.41 -8.61097 6.3716 -9.0953 
232 69 1 0.41 -8.55542 7.85377 -9.66378 
233 70 2 -0.82 -1.24573 8.23569 1.34748 
234 70 1 0.41 -1.02892 7.99959 0.334971 
235 70 1 0.41 -0.818894 9.11486 1.70568 
236 71 2 -0.82 -0.723653 -1.40858 -11.3001 
237 71 1 0.41 -0.696334 -0.44174 -11.1637 
238 71 1 0.41 -0.940535 -1.86325 -10.3947 
239 72 2 -0.82 -0.547977 6.02514 -3.32726 
240 72 1 0.41 -0.788861 6.09789 -4.33987 
241 72 1 0.41 -1.44223 5.76937 -2.8862 
242 73 2 -0.82 9.94358 -11.742 -7.79883 
243 73 1 0.41 9.84043 -11.3665 -6.88959 
244 73 1 0.41 10.0251 -10.9467 -8.44082 
245 74 2 -0.82 3.39216 -6.32358 10.6416 
246 74 1 0.41 2.67557 -7.06346 10.423 
247 74 1 0.41 4.33395 -6.73767 10.6797 
248 75 2 -0.82 -9.77856 -0.00844926 0.231884 
249 75 1 0.41 -9.85821 0.151721 1.25109 
250 75 1 0.41 -9.28165 0.710476 -0.317036 
251 76 2 -0.82 -11.6507 8.18475 -6.66372 
252 76 1 0.41 -11.115 8.93192 -7.10888 
253 76 1 0.41 -11.2205 8.10131 -5.7085 
254 77 2 -0.82 6.62254 1.7891 5.49261 
255 77 1 0.41 6.27986 1.0588 6.16627 
256 77 1 0.41 7.5828 1.594 5.63657 
257 78 2 -0.82 -4.13141 8.08981 5.25247 
258 78 1 0.41 -3.33322 7.87313 4.60003 
259 78 1 0.41 -4.29685 7.13234 5.60043 
260 79 2 -0.82 11.4875 -9.92653 8.04614 
261 79 1 0.41 11.9341 -9.86955 7.1592 
262 79 1 0.41 12.0057 -9.32616 8.66056 
263 80 2 -0.82 7.91746 -6.10257 6.8909 
264 80 1 0.41 8.31296 -6.80768 7.55072 
265 80 1 0.41 8.67982 -5.79922 6.28071 
266 81 2 -0.82 5.8449 9.66325 -2.59848 
267 81 1 0.41 5.47456 9.09833 -3.33003 
268 81 1 0.41 5.13599 10.3102 -2.32281 
269 82 2 -0.82 1.68059 -11.7545 9.09024 
270 82 1 0.41 0.916536 11.9298 9.44769 
271 82 1 0.41 2.25905 -11.2883 9.77296 
272 83 2 -0.82 -8.93567 -7.64571 1.22359 
273 83 1 0.41 -9.10949 -7.38578 0.217291 
274 83 1 0.41 -9.19767 -8.64269 1.31236 
275 84 2 -0.82 -4.37529 -5.36685 -8.102 
276 84 1 0.41 -5.37075 -5.39491 -8.33868 
277 84 1 0.41 -4.13544 -5.88701 -8.88579 
278 85 2 -0.82 -9.00403 -0.752998 4.0501 
279 85 1 0.41 -9.53694 -1.44893 4.64494 
280 85 1 0.41 -8.50637 -1.31374 3.35141 
281 86 2 -0.82 -2.99369 -7.45302 3.10582 
282 86 1 0.41 -3.6513 -7.66292 2.34838 
283 86 1 0.41 -2.1328 -7.96059 2.8893 
284 87 2 -0.82 -9.38446 -11.2675 -10.7471 
285 87 1 0.41 -8.55118 -11.7202 -10.3212 
286 87 1 0.41 -10.2152 -11.3629 -10.1463 
287 88 2 -0.82 1.80826 -5.93298 2.65827 
288 88 1 0.41 1.98255 -5.46373 3.53354 
289 88 1 0.41 2.6224 -6.52096 2.53243 
290 89 2 -0.82 -8.45966 9.30812 0.351251 
291 89 1 0.41 -8.7005 10.1242 -0.195732 
292 89 1 0.41 -7.6548 8.75396 0.0712166 
293 90 2 -0.82 6.90287 -1.95626 -5.0408 
294 90 1 0.41 6.00241 -1.51198 -4.99881 
295 90 1 0.41 7.02398 -2.63569 -5.82863 
296 91 2 -0.82 11.1872 6.63208 9.29183 
297 91 1 0.41 11.3442 6.97798 8.31924 
298 91 1 0.41 12.0033 7.0068 9.8316 
299 92 2 -0.82 -6.85786 3.99618 8.08542 
300 92 1 0.41 -6.77549 4.68839 8.89466 
301 92 1 0.41 -7.29621 3.16278 8.52228 
302 93 2 -0.82 7.36752 -2.97604 2.88641 
303 93 1 0.41 7.32118 -2.1417 3.52947 
304 93 1 0.41 8.26176 -2.80645 2.47517 
305 94 2 -0.82 9.15475 10.7857 -0.770399 
306 94 1 0.41 8.58396 11.1004 -1.54894 
307 94 1 0.41 8.88384 9.79091 -0.531647 
308 95 2 -0.82 -11.421 -1.9952 11.3237 
309 95 1 0.41 -10.6391 -2.22209 10.6832 
310 95 1 0.41 12.002 -2.07982 10.7804 
311 96 2 -0.82 -11.7997 -4.924 -10.9411 
312 96 1 0.41 11.6502 -4.28313 -10.7442 
313 96 1 0.41 -11.0871 -4.43309 -11.5006 
314 97 2 -0.82 5.43688 -5.52253 -9.92594 
315 97 1 0.41 5.35013 -4.51197 -9.79333 
316 97 1 0.41 4.50438 -5.85656 -10.1713 
317 98 2 -0.82 7.31679 6.47219 -7.86688 
318 98 1 0.41 7.9495 7.14964 -8.34225 
319 98 1 0.41 7.92244 6.10902 -7.13021 
320 99 2 -0.82 -12.0325 1.36402 2.98561 
321 99 1 0.41 11.7333 2.09549 2.49744 
322 99 1 0.41 -11.0055 1.51965 2.9767 
323 100 2 -0.82 -6.49045 -11.2494 -10.4863 
324 100 1 0.41 -5.81719 -11.7552 -11.118 
325 100 1 0.41 -6.03513 -10.3114 -10.4034 
326 101 2 -0.82 0.824848 8.69156 8.61278 
327 101 1 0.41 1.29856 8.94634 7.71416 
328 101 1 0.41 -0.163554 8.53642 8.29561 
329 102 2 -0.82 -12.0148 10.3197 4.19271 
330 102 1 0.41 -11.2758 10.5083 3.49106 
331 102 1 0.41 12.016 9.30979 4.4389 
332 103 2 -0.82 3.97067 0.0465318 4.26907 
333 103 1 0.41 3.57838 -0.892554 4.13816 
334 103 1 0.41 4.94677 0.226298 4.41801 
335 104 2 -0.82 -11.4849 4.09873 -11.9351 
336 104 1 0.41 -11.7435 3.78214 11.3635 
337 104 1 0.41 -12.1021 3.63349 -11.227 
338 105 2 -0.82 -10.7007 -8.63324 -12.0901 
339 105 1 0.41 -10.5907 -7.96374 -11.3403 
340 105 1 0.41 -9.79479 -9.18103 -12.0285 
341 106 2 -0.82 5.04704 -2.60873 -9.44445 
342 106 1 0.41 5.24557 -1.84239 -10.1136 
343 106 1 0.41 4.21073 -2.40641 -8.89122 
344 107 2 -0.82 -0.196656 11.479 11.2914 
345 107 1 0.41 -1.05368 10.9244 11.0321 
346 107 1 0.41 0.522514 10.7698 11.3465 
347 108 2 -0.82 -3.70731 9.49757 -9.06098 
348 108 1 0.41 -4.48131 10.1433 -8.82545 
349 108 1 0.41 -3.1218 9.37394 -8.19311 
350 109 2 -0.82 5.22509 -8.17552 7.06035 
351 109 1 0.41 6.08178 -7.58159 7.0473 
352 109 1 0.41 5.40516 -8.62112 7.94215 
353 110 2 -0.82 -3.06518 -11.6482 -8.12686 
354 110 1 0.41 -3.94324 12.0755 -7.98474 
355 110 1 0.41 -2.27217 11.9557 -8.23989 
356 111 2 -0.82 -3.18102 -5.88887 -5.59452 
357 111 1 0.41 -3.48596 -5.14488 -4.97431 
358 111 1 0.41 -3.69738 -5.83754 -6.52242 
359 112 2 -0.82 8.67836 -6.96894 10.0527 
360 112 1 0.41 8.88796 -7.61831 9.28938 
361 112 1 0.41 9.52059 -6.7998 10.6298 
362 113 2 -0.82 7.89289 -5.09267 -11.378 
363 113 1 0.41 7.0543 -5.31884 -10.8416 
364 113 1 0.41 8.73899 -5.13178 -10.8247 
365 114 2 -0.82 -8.20228 5.70467 -1.44978 
366 114 1 0.41 -8.09404 5.53524 -0.438897 
367 114 1 0.41 -7.21814 5.85788 -1.81919 
368 115 2 -0.82 5.05658 -3.31332 9.34627 
369 115 1 0.41 5.9879 -3.64427 9.61718 
370 115 1 0.41 4.59819 -3.14166 10.2519 
371 116 2 -0.82 -11.8215 4.77804 1.18947 
372 116 1 0.41 -11.1919 4.09495 0.73505 
373 116 1 0.41 11.4591 4.4654 1.2265 
374 117 2 -0.82 -4.47978 -1.47614 -5.06912 
375 117 1 0.41 -5.3604 -0.978754 -5.24076 
376 117 1 0.41 -3.74077 -0.911308 -4.8164 
377 118 2 -0.82 -11.5772 7.05346 -0.393495 
378 118 1 0.41 -11.012 6.74449 -1.15791 
379 118 1 0.41 -11.8757 6.1735 0.0141192 
380 119 2 -0.82 1.60702 9.67626 11.1535 
381 119 1 0.41 2.54483 10.0532 10.9787 
382 119 1 0.41 1.27369 9.25808 10.2341 
383 120 2 -0.82 -9.70797 11.1185 -1.48949 
384 120 1 0.41 -9.64938 -12.099 -1.49219 
385 120 1 0.41 -10.6611 10.7688 -1.27102 
386 121 2 -0.82 -5.38673 5.82766 -9.04558 
387 121 1 0.41 -6.24485 6.31528 -8.90828 
388 121 1 0.41 -5.00596 5.9341 -10.003 
389 122 2 -0.82 11.3594 -4.40243 -3.00621 
390 122 1 0.41 11.7762 -3.78016 -2.25447 
391 122 1 0.41 11.7476 -5.37722 -2.99199 
392 123 2 -0.82 4.32826 -3.22975 12.0466 
393 123 1 0.41 3.55614 -2.62813 11.7402 
394 123 1 0.41 4.00109 -4.11673 -11.9235 
395 124 2 -0.82 9.31573 9.2146 2.73457 
396 124 1 0.41 9.40851 10.2279 2.81304 
397 124 1 0.41 9.90057 8.80879 3.40217 
398 125 2 -0.82 -11.4204 1.63092 -2.25743 
399 125 1 0.41 -11.8253 0.712004 -2.15516 
400 125 1 0.41 -11.2482 1.78693 -3.22832 
401 126 2 -0.82 -9.77946 -10.4318 1.46504 
402 126 1 0.41 -9.84473 -11.4242 1.52539 
403 126 1 0.41 -10.4837 -10.1777 0.75917 
404 127 2 -0.82 -0.171906 -9.53304 10.323 
405 127 1 0.41 0.307167 -10.3857 10.5186 
406 127 1 0.41 -1.06674 -9.75263 9.85838 
407 128 2 -0.82 -4.85911 -11.27 9.44451 
408 128 1 0.41 -4.79143 -11.498 10.4411 
409 128 1 0.41 -4.70762 12.0824 8.94711 
410 129 2 -0.82 10.4675 2.79343 -1.90352 
411 129 1 0.41 10.3125 3.7896 -2.07167 
412 129 1 0.41 11.4455 2.5607 -1.93427 
413 130 2 -0.82 -11.0532 -9.20534 -8.08883 
414 130 1 0.41 -11.3077 -9.8376 -8.86458 
415 130 1 0.41 -11.2671 -8.31008 -8.50746 
416 131 2 -0.82 2.66296 -4.55059 4.98036 
417 131 1 0.41 3.69708 -4.5836 5.12721 
418 131 1 0.41 2.20482 -4.10421 5.7519 
419 132 2 -0.82 -1.85757 -11.8008 -11.2685 
420 132 1 0.41 -1.22796 12.0958 -12.0135 
421 132 1 0.41 -1.58198 11.9904 -10.388 
422 133 2 -0.82 -6.72909 5.18469 10.647 
423 133 1 0.41 -5.83438 5.35811 11.122 
424 133 1 0.41 -7.4214 5.77293 11.1751 
425 134 2 -0.82 2.09071 6.01559 4.79283 
426 134 1 0.41 1.55818 6.22164 5.62985 
427 134 1 0.41 2.3683 6.89969 4.31107 
428 135 2 -0.82 -3.62474 5.17174 -7.10894 
429 135 1 0.41 -3.68166 4.10982 -7.02533 
430 135 1 0.41 -4.27497 5.4352 -7.87294 
431 136 2 -0.82 2.95317 8.40285 3.31686 
432 136 1 0.41 2.37561 8.56718 2.45132 
433 136 1 0.41 3.84728 8.94751 3.22439 
434 137 2 -0.82 8.36838 5.38871 -5.52806 
435 137 1 0.41 7.3289 5.31236 -5.53311 
436 137 1 0.41 8.676 5.45729 -4.57985 
437 138 2 -0.82 -0.966007 -0.299791 2.56372 
438 138 1 0.41 -1.22744 -1.29702 2.73655 
439 138 1 0.41 -0.202835 -0.407399 1.93814 
440 139 2 -0.82 -11.1123 8.81989 -3.79281 
441 139 1 0.41 -11.7269 9.67713 -3.8351 
442 139 1 0.41 -10.2444 9.11814 -3.33676 
443 140 2 -0.82 0.999021 4.62331 8.66376 
444 140 1 0.41 1.6797 5.25499 9.00951 
445 140 1 0.41 1.41137 3.6836 8.66273 
446 141 2 -0.82 -6.64407 -11.9598 3.22505 
447 141 1 0.41 -7.62761 -11.9301 3.09286 
448 141 1 0.41 -6.35956 12.0784 2.28392 
449 142 2 -0.82 3.24514 5.82407 0.347738 
450 142 1 0.41 3.39944 4.79818 0.26095 
451 142 1 0.41 4.15595 6.31166 0.454953 
452 143 2 -0.82 -1.43716 -2.90086 3.2426 
453 143 1 0.41 -0.896739 -3.82444 3.43236 
454 143 1 0.41 -2.14932 -2.88717 4.00154 
455 144 2 -0.82 11.0725 -12.0971 5.8603 
456 144 1 0.41 11.3267 11.4161 5.22441 
457 144 1 0.41 11.3923 11.981 6.79242 
458 145 2 -0.82 9.82092 2.20421 9.52186 
459 145 1 0.41 10.4361 2.96094 9.80382 
460 145 1 0.41 8.92266 2.12776 10.0591 
461 146 2 -0.82 2.88464 -5.83773 -11.0559 
462 146 1 0.41 2.01953 -5.35735 -11.192 
463 146 1 0.41 3.1846 -6.26516 -11.943 
464 147 2 -0.82 -8.06424 1.92249 -1.28653 
465 147 1 0.41 -7.08907 2.02217 -1.07192 
466 147 1 0.41 -8.52834 2.73209 -0.843729 
467 148 2 -0.82 -4.26588 4.44021 0.238014 
468 148 1 0.41 -3.55396 4.24767 0.955631 
469 148 1 0.41 -3.72032 4.88601 -0.520101 
470 149 2 -0.82 -3.54825 -8.88453 -7.68151 
471 149 1 0.41 -3.61803 -8.23916 -8.48933 
472 149 1 0.41 -3.43877 -9.86669 -8.03215 
473 150 2 -0.82 0.978964 5.75443 11.4899 
474 150 1 0.41 0.86094 4.89851 10.9542 
475 150 1 0.41 1.61097 6.3596 10.9489 
476 151 2 -0.82 -6.27697 8.05098 8.94742 
477 151 1 0.41 -6.38361 7.68364 9.87642 
478 151 1 0.41 -7.1753 8.52661 8.66155 
479 152 2 -0.82 10.1015 8.29013 -7.76441 
480 152 1 0.41 10.9753 8.45576 -7.21436 
481 152 1 0.41 10.4382 8.2114 -8.75244 
482 153 2 -0.82 -8.44337 6.84884 -5.44242 
483 153 1 0.41 -7.89528 7.11945 -6.28947 
484 153 1 0.41 -8.1152 7.53505 -4.70756 
485 154 2 -0.82 -5.92008 6.7505 -2.59052 
486 154 1 0.41 -5.93825 6.0391 -3.37771 
487 154 1 0.41 -6.20449 7.65268 -2.95681 
488 155 2 -0.82 -5.52649 -2.12721 2.71772 
489 155 1 0.41 -5.04399 -1.29623 3.0837 
490 155 1 0.41 -5.17201 -3.04877 3.02311 
491 156 2 -0.82 -6.58162 8.71043 -6.59574 
492 156 1 0.41 -6.96118 9.66014 -6.62723 
493 156 1 0.41 -6.01904 8.60157 -7.44513 
494 157 2 -0.82 -9.66904 -6.97142 5.60815 
495 157 1 0.41 -10.5414 -6.40705 5.57876 
496 157 1 0.41 -9.59499 -7.43092 6.54718 
497 158 2 -0.82 -3.76486 -2.543 -7.49036 
498 158 1 0.41 -3.82728 -2.31821 -6.47029 
499 158 1 0.41 -3.95764 -3.56373 -7.64653 
500 159 2 -0.82 3.53654 8.72186 -7.65557 
501 159 1 0.41 3.87838 7.74291 -7.43005 
502 159 1 0.41 4.29322 9.38096 -7.76487 
503 160 2 -0.82 8.45439 -10.843 6.39961 
504 160 1 0.41 8.25695 -11.1451 7.36707 
505 160 1 0.41 9.46866 -11.0641 6.32186 
506 161 2 -0.82 4.23123 -10.4223 -10.8349 
507 161 1 0.41 5.15362 -10.8333 -10.7472 
508 161 1 0.41 3.55736 -11.1193 -10.415 
509 162 2 -0.82 1.9128 7.13855 -10.4424 
510 162 1 0.41 2.92815 6.97406 -10.5069 
511 162 1 0.41 1.4438 6.67447 -11.2456 
512 163 2 -0.82 0.241639 -5.98334 -5.60886 
513 163 1 0.41 1.19872 -5.79456 -5.23813 
514 163 1 0.41 0.253243 -6.54804 -6.465 
515 164 2 -0.82 -11.8261 -11.442 -9.5961 
516 164 1 0.41 11.7281 -11.5652 -8.82986 
517 164 1 0.41 11.9689 -11.2566 -10.5541 
518 165 2 -0.82 -0.0309917 2.98059 -10.1035 
519 165 1 0.41 -0.0342254 2.06287 -9.75308 
520 165 1 0.41 0.828628 3.49062 -9.74206 
521 166 2 -0.82 -3.37243 6.27264 -1.55556 
522 166 1 0.41 -4.40111 6.51137 -1.67536 
523 166 1 0.41 -2.81871 7.08189 -1.64097 
524 167 2 -0.82 5.96537 10.3858 9.22155 
525 167 1 0.41 5.97695 9.3478 9.2146 
526 167 1 0.41 5.76597 10.5091 8.19762 
527 168 2 -0.82 3.35326 7.16857 -2.13364 
528 168 1 0.41 3.08681 6.66254 -2.99251 
529 168 1 0.41 3.13635 6.55058 -1.32645 
530 169 2 -0.82 -10.9895 7.46235 10.6321 
531 169 1 0.41 -10.351 7.93302 9.93157 
532 169 1 0.41 -11.3612 8.23987 11.2138 
533 170 2 -0.82 -3.99412 -2.45762 -10.1798 
534 170 1 0.41 -3.79998 -3.41519 -10.4825 
535 170 1 0.41 -3.98935 -2.46746 -9.18689 
536 171 2 -0.82 -7.15974 -10.77 -4.21108 
537 171 1 0.41 -8.03288 -10.7344 -3.69713 
538 171 1 0.41 -7.13303 -9.85997 -4.66512 
539 172 2 -0.82 1.01539 -3.50382 7.01368 
540 172 1 0.41 0.21374 -2.99931 6.6302 
541 172 1 0.41 0.592106 -4.38622 7.34704 
542 173 2 -0.82 -8.2357 -2.29553 -9.3106 
543 173 1 0.41 -7.75615 -2.70727 -10.0865 
544 173 1 0.41 -7.43328 -1.90247 -8.79983 
545 174 2 -0.82 6.71212 9.85295 1.24434 
546 174 1 0.41 7.61515 9.66317 1.7121 
547 174 1 0.41 6.83267 9.02338 0.595911 
548 175 2 -0.82 -3.37913 4.1207 3.93928 
549 175 1 0.41 -2.86298 3.25782 4.21584 
550 175 1 0.41 -2.89657 4.53595 3.11908 
551 176 2 -0.82 -9.17139 -2.3745 9.54888 
552 176 1 0.41 -8.94469 -3.37399 9.61744 
553 176 1 0.41 -9.74863 -2.28942 8.69381 
554 177 2 -0.82 -0.608541 -5.50151 3.90116 
555 177 1 0.41 0.148013 -5.62221 3.20741 
556 177 1 0.41 -1.24324 -6.29019 3.87932 
557 178 2 -0.82 6.6226 -0.241816 -9.76233 
558 178 1 0.41 7.44319 -0.897277 -9.48292 
559 178 1 0.41 5.99511 -0.0214554 -8.99205 
560 179 2 -0.82 -0.203726 10.2864 -5.481 
561 179 1 0.41 0.283492 10.9789 -6.0778 
562 179 1 0.41 -1.12542 10.0658 -5.88549 
563 180 2 -0.82 -11.1695 -3.238 2.82243 
564 180 1 0.41 -10.2142 -3.01079 2.57461 
565 180 1 0.41 -11.2698 -4.2262 2.68763 
566 181 2 -0.82 7.00844 -1.39032 12.0656 
567 181 1 0.41 6.27045 -2.06282 -12.0451 
568 181 1 0.41 7.10447 -0.81107 -11.3303 
569 182 2 -0.82 -9.3938 9.36048 -10.0783 
570 182 1 0.41 -8.59497 9.40519 -10.7914 
571 182 1 0.41 -10.2573 9.00202 -10.4648 
572 183 2 -0.82 7.36654 -5.52467 -2.9974 
573 183 1 0.41 8.12709 -6.21353 -2.83209 
574 183 1 0.41 6.45944 -5.92666 -2.66086 
575 184 2 -0.82 8.46636 1.53484 -3.84145 
576 184 1 0.41 9.25262 2.1237 -3.46416 
577 184 1 0.41 7.7736 1.64491 -3.04907 
578 185 2 -0.82 7.59406 -2.89533 -2.71395 
579 185 1 0.41 7.43376 -2.35662 -3.56023 
580 185 1 0.41 7.46975 -3.84693 -3.02049 
581 186 2 -0.82 4.72493 6.53145 -11.1214 
582 186 1 0.41 4.86509 5.78514 -10.3758 
583 186 1 0.41 5.5061 6.39774 -11.7282 
584 187 2 -0.82 0.978845 3.73855 -6.02014 
585 187 1 0.41 1.23445 4.3402 -6.83395 
586 187 1 0.41 1.45725 4.2927 -5.3147 
587 188 2 -0.82 -10.9525 7.10243 -10.2865 
588 188 1 0.41 -10.0296 6.9098 -10.6698 
589 188 1 0.41 -11.6172 6.32893 -10.2814 
590 189 2 -0.82 -5.28443 0.705711 -2.54513 
591 189 1 0.41 -5.11463 0.953423 -1.55523 
592 189 1 0.41 -6.29376 0.395891 -2.60028 
593 190 2 -0.82 -4.82373 -9.29669 -10.8053 
594 190 1 0.41 -4.24215 -8.81246 -11.5739 
595 190 1 0.41 -4.10881 -9.94016 -10.3941 
596 191 2 -0.82 -12.0043 9.80477 11.6808 
597 191 1 0.41 -12.0531 9.84449 -11.5419 
598 191 1 0.41 11.265 9.90203 11.3665 
599 192 2 -0.82 11.0684 2.56928 5.16219 
600 192 1 0.41 11.5116 2.16574 4.35288 
601 192 1 0.41 10.5661 3.44726 4.94183 
602 193 2 -0.82 -7.60761 3.32901 5.44492 
603 193 1 0.41 -7.21539 3.98045 4.75311 
604 193 1 0.41 -7.28576 3.71136 6.34027 
605 194 2 -0.82 2.28408 -2.07596 3.67001 
606 194 1 0.41 1.63352 -2.62435 4.28798 
607 194 1 0.41 2.6402 -2.70221 2.91734 
608 195 2 -0.82 -8.37711 -7.04031 -11.2517 
609 195 1 0.41 -7.82989 -7.31522 -10.4747 
610 195 1 0.41 -7.85381 -7.10018 12.0948 
611 196 2 -0.82 -4.91443 -3.52222 10.6376 
612 196 1 0.41 -5.43833 -4.18183 10.0371 
613 196 1 0.41 -3.93104 -3.82901 10.6972 
614 197 2 -0.82 -9.70601 -5.99141 -0.784044 
615 197 1 0.41 -10.0332 -5.29682 -0.0965125 
616 197 1 0.41 -8.91757 -5.57971 -1.32528 
617 198 2 -0.82 -6.88895 -5.54085 2.70016 
618 198 1 0.41 -7.13164 -6.46238 2.32837 
619 198 1 0.41 -5.87566 -5.59333 2.69235 
620 199 2 -0.82 8.02317 8.51739 5.34423 
621 199 1 0.41 7.5468 9.34393 4.95258 
622 199 1 0.41 8.90463 8.20326 4.83926 
623 200 2 -0.82 5.81413 5.74586 3.46593 
624 200 1 0.41 5.38468 5.0907 4.17231 
625 200 1 0.41 5.24733 5.82702 2.61053 
626 201 2 -0.82 9.83161 -3.1957 11.164 
627 201 1 0.41 10.0751 -3.32867 10.2279 
628 201 1 0.41 8.93989 -2.75789 11.0441 
629 202 2 -0.82 0.595279 -8.06846 0.781186 
630 202 1 0.41 1.36622 -8.4119 0.117468 
631 202 1 0.41 0.446485 -7.07656 0.583288 
632 203 2 -0.82 9.0778 2.73453 -8.37897 
633 203 1 0.41 8.9461 1.83809 -7.85014 
634 203 1 0.41 9.6152 3.42092 -7.77603 
635 204 2 -0.82 3.46145 -0.1834 9.48404 
636 204 1 0.41 4.21502 -0.256045 8.78473 
637 204 1 0.41 2.57393 -0.414222 8.98108 
638 205 2 -0.82 7.25282 -10.9913 8.97873 
639 205 1 0.41 6.80815 -11.9185 8.91834 
640 205 1 0.41 6.61745 -10.391 9.5674 
641 206 2 -0.82 -4.59621 2.52381 -9.37308 
642 206 1 0.41 -3.99828 3.13731 -9.87488 
643 206 1 0.41 -5.47955 2.942 -9.20864 
644 207 2 -0.82 6.97341 -11.2184 -11.1649 
645 207 1 0.41 7.46945 -12.1083 -11.0249 
646 207 1 0.41 7.59802 -10.4575 -10.9903 
647 208 2 -0.82 4.22731 -9.16991 -3.04346 
648 208 1 0.41 4.75294 -9.99417 -3.32714 
649 208 1 0.41 3.72315 -8.81319 -3.8608 
650 209 2 -0.82 3.53066 -5.75574 -0.406648 
651 209 1 0.41 2.62768 -5.86383 -0.878087 
652 209 1 0.41 3.88465 -4.76324 -0.340464 
653 210 2 -0.82 5.36321 -6.82051 -1.97061 
654 210 1 0.41 4.70833 -6.34695 -1.35942 
655 210 1 0.41 4.902 -7.72663 -2.28444 
656 211 2 -0.82 4.21154 -0.855572 -5.39307 
657 211 1 0.41 3.7188 -1.73372 -5.45692 
658 211 1 0.41 3.59353 -0.0500305 -5.4026 
659 212 2 -0.82 -1.3157 -2.75694 -8.97206 
660 212 1 0.41 -2.13877 -2.67887 -8.32616 
661 212 1 0.41 -0.495676 -2.48173 -8.50037 
662 213 2 -0.82 4.03682 -5.4274 7.79607 
663 213 1 0.41 3.66732 -6.01573 8.5131 
664 213 1 0.41 4.12766 -4.5234 8.19905 
665 214 2 -0.82 -9.72297 4.45317 -8.1546 
666 214 1 0.41 -9.44907 3.51598 -8.01771 
667 214 1 0.41 -9.70911 4.32328 -9.22854 
668 215 2 -0.82 5.50393 -7.01619 -5.186 
669 215 1 0.41 6.31683 -6.84776 -4.62242 
670 215 1 0.41 5.66208 -6.60737 -6.12331 
671 216 2 -0.82 -1.53382 0.747737 7.36945 
672 216 1 0.41 -2.31102 0.695767 8.0538 
673 216 1 0.41 -1.01838 1.60169 7.34449 
674 217 2 -0.82 -4.1594 7.76055 2.00085 
675 217 1 0.41 -3.18006 8.11079 1.85884 
676 217 1 0.41 -4.40781 7.81403 2.95542 
677 218 2 -0.82 -11.5255 5.98544 -3.51792 
678 218 1 0.41 -11.275 6.97955 -3.6505 
679 218 1 0.41 -11.6102 5.62405 -4.47653 
680 219 2 -0.82 9.03643 6.33079 11.4635 
681 219 1 0.41 9.42042 5.60389 10.8752 
682 219 1 0.41 9.53889 6.50761 -11.9028 
683 220 2 -0.82 -0.0167728 -9.20534 5.77893 
684 220 1 0.41 0.825967 -8.73485 6.07048 
685 220 1 0.41 0.00489235 -10.0875 6.28468 
686 221 2 -0.82 -4.36272 12.0293 -12.0395 
687 221 1 0.41 -4.59115 11.025 -12.079 
688 221 1 0.41 -3.38551 -12.1101 -11.6047 
689 222 2 -0.82 6.02934 7.83512 8.78186 
690 222 1 0.41 7.05004 7.7867 8.57321 
691 222 1 0.41 5.46719 7.44971 7.98066 
692 223 2 -0.82 -9.50729 3.33084 0.474732 
693 223 1 0.41 -9.24043 2.4872 1.03731 
694 223 1 0.41 -8.90582 4.12201 0.851244 
695 224 2 -0.82 -1.15016 -0.668308 -1.34516 
696 224 1 0.41 -1.12121 -1.51031 -0.784271 
697 224 1 0.41 -1.4438 0.162938 -0.8068 
698 225 2 -0.82 -8.57404 -2.92264 2.19776 
699 225 1 0.41 -8.31163 -2.6368 1.23415 
700 225 1 0.41 -8.10856 -3.87832 2.41172 
701 226 2 -0.82 -1.05278 -10.4817 0.168484 
702 226 1 0.41 -0.867657 -11.3489 0.721604 
703 226 1 0.41 -0.410161 -9.76361 0.668765 
704 227 2 -0.82 -10.5359 -2.63118 6.62284 
705 227 1 0.41 -9.95468 -1.75763 6.84507 
706 227 1 0.41 -11.2716 -2.35554 5.95672 
707 228 2 -0.82 9.26716 -5.98551 3.83358 
708 228 1 0.41 9.42495 -5.37811 3.05211 
709 228 1 0.41 8.39946 -6.33909 3.54221 
710 229 2 -0.82 -10.3553 11.9153 10.4568 
711 229 1 0.41 -10.2692 -11.6752 11.2486 
712 229 1 0.41 -10.8442 11.0476 10.7499 
713 230 2 -0.82 -2.5988 10.1739 6.51287 
714 230 1 0.41 -3.03731 9.37607 6.04799 
715 230 1 0.41 -2.59951 11.0476 5.88914 
716 231 2 -0.82 -3.74735 -10.2799 -0.472337 
717 231 1 0.41 -3.7489 -9.93366 -1.49002 
718 231 1 0.41 -2.75408 -10.3505 -0.224906 
719 232 2 -0.82 6.46668 6.17141 -3.17392 
720 232 1 0.41 6.21406 5.21687 -2.93988 
721 232 1 0.41 5.77943 6.65431 -3.78338 
722 233 2 -0.82 5.08664 3.73246 10.2913 