ITEM: TIMESTEP
558990
ITEM: NUMBER OF ATOMS
1429
ITEM: BOX BOUNDS pp pp pp
-12.1247 12.1247
-12.1247 12.1247
-12.1247 12.1247
ITEM: ATOMS id mol type q x y z
1 1 8 0.51 6.0449 -0.00740866 -7.43233
2 1 9 -0.51 6.95755 0.811416 -7.6862
3 1 10 -0.47 4.94843 -0.0783396 -8.13535
4 1 5 0.31 4.34158 -0.900085 -7.99805
5 1 15 -0.11 4.40074 0.906713 -8.92151
6 1 7 0.09 5.16828 1.45887 -9.47371
7 1 7 0.09 3.85723 0.439505 -9.76136
8 1 7 0.09 3.72911 1.59112 -8.45739
9 1 15 -0.27 10.0515 -0.624833 -5.79112
10 1 7 0.09 10.0008 0.472302 -5.72016
11 1 7 0.09 10.9626 -0.703443 -6.39527
12 1 7 0.09 10.1099 -1.10113 -4.75413
13 1 8 0.51 8.81379 -1.10486 -6.3517
14 1 9 -0.51 8.81088 -2.01605 -7.19599
15 1 10 -0.47 7.6187 -0.617296 -5.90484
16 1 5 0.31 7.63742 0.0150655 -5.10282
17 1 12 0.07 6.30132 -0.951594 -6.28298
18 1 4 0.09 6.13077 -1.95612 -6.6041
19 1 12 -0.18 5.30754 -0.444211 -5.28418
20 1 7 0.09 5.23346 0.686889 -5.24525
21 1 7 0.09 4.2472 -0.920397 -5.33937
22 1 11 -0.21 5.7751 -0.864555 -3.83407
23 1 7 0.09 6.28979 -1.85325 -3.78244
24 1 7 0.09 6.59479 -0.220587 -3.49456
25 1 20 0.75 4.73763 -0.852957 -2.78502
26 1 18 -0.55 4.11703 0.135423 -2.51801
27 1 19 -0.61 4.53685 -1.99813 -2.04954
28 2 2 -0.82 8.19974 11.1577 0.569401
29 2 1 0.41 9.23501 11.3032 0.780694
30 2 1 0.41 8.05635 11.1609 -0.481149
31 255 1 0.41 -10.5189 5.59014 1.08277
32 3 2 -0.82 6.78917 9.74339 2.27747
33 3 1 0.41 5.83268 9.43091 2.07476
34 3 1 0.41 7.20979 10.0828 1.39857
35 4 2 -0.82 -6.98595 -8.3194 -0.0969553
36 4 1 0.41 -6.96649 -7.23361 -0.185344
37 4 1 0.41 -6.86641 -8.66545 0.837601
38 5 2 -0.82 -2.75832 -1.80004 -6.80865
39 5 1 0.41 -2.41031 -1.62442 -7.77557
40 5 1 0.41 -1.89183 -2.14253 -6.35902
41 6 2 -0.82 -6.18309 -2.06976 5.64293
42 6 1 0.41 -5.54445 -1.2491 5.59389
43 6 1 0.41 -6.82959 -1.78665 6.39553
44 7 2 -0.82 4.27188 -3.97732 0.752144
45 7 1 0.41 3.96311 -3.85376 1.74551
46 7 1 0.41 3.52533 -4.52027 0.240864
47 8 2 -0.82 -1.29165 -7.86156 -3.74143
48 8 1 0.41 -1.58295 -8.57554 -3.08842
49 8 1 0.41 -0.587234 -8.17299 -4.41265
50 9 2 -0.82 11.445 7.71151 8.79813
51 9 1 0.41 11.1144 8.05088 9.70584
52 9 1 0.41 11.7584 8.58645 8.31563
53 10 2 -0.82 -6.8377 -0.847532 2.57179
54 10 1 0.41 -6.64112 0.144193 2.37365
55 10 1 0.41 -6.65592 -1.00282 3.56146
56 11 2 -0.82 11.9848 -8.05048 5.48628
57 11 1 0.41 -11.6988 -7.18661 5.61908
58 11 1 0.41 11.8547 -8.03457 4.4917
59 12 2 -0.82 1.84748 -4.46825 -9.43955
60 12 1 0.41 2.24162 -3.51562 -9.351
61 12 1 0.41 1.58218 -4.93133 -8.527
62 13 2 -0.82 9.35867 4.93342 -3.96594
63 13 1 0.41 9.35693 5.28621 -4.94635
64 13 1 0.41 10.4038 4.83753 -3.79004
65 14 2 -0.82 -0.238153 -11.3535 9.67594
66 14 1 0.41 -0.874611 -11.644 8.90416
67 14 1 0.41 -0.403979 -10.38 9.8716
68 15 2 -0.82 -9.52625 -4.74778 -10.3305
69 15 1 0.41 -9.51787 -3.98593 -10.9274
70 15 1 0.41 -8.87317 -5.4692 -10.4866
71 16 2 -0.82 -1.40268 11.9968 4.1772
72 16 1 0.41 -0.818723 -11.4451 4.43926
73 16 1 0.41 -1.39335 11.9225 3.11653
74 17 2 -0.82 8.43232 -5.27223 -11.2427
75 17 1 0.41 9.40313 -4.90952 -11.1135
76 17 1 0.41 7.93303 -5.11623 -10.356
77 18 2 -0.82 -4.24191 -7.76138 7.86912
78 18 1 0.41 -3.83144 -6.91819 8.31184
79 18 1 0.41 -3.87915 -8.55335 8.4576
80 19 2 -0.82 -2.26456 7.75928 -0.352913
81 19 1 0.41 -2.90403 7.8671 0.448082
82 19 1 0.41 -1.79942 8.655 -0.593455
83 20 2 -0.82 10.464 -3.97845 -7.95101
84 20 1 0.41 9.97496 -3.17352 -7.5722
85 20 1 0.41 10.3154 -4.82642 -7.39186
86 21 2 -0.82 6.42135 6.73124 3.38701
87 21 1 0.41 6.79836 5.95743 3.94846
88 21 1 0.41 6.95147 7.55791 3.63303
89 22 2 -0.82 8.51753 -2.14653 7.45941
90 22 1 0.41 8.46418 -3.11712 7.1883
91 22 1 0.41 8.56097 -1.63263 6.59176
92 23 2 -0.82 -2.76747 -0.994458 7.80592
93 23 1 0.41 -1.7501 -0.753095 7.61614
94 23 1 0.41 -2.84225 -0.698402 8.80952
95 24 2 -0.82 11.3934 3.91653 -0.823598
96 24 1 0.41 11.9471 3.10848 -0.410169
97 24 1 0.41 10.3976 3.72104 -0.819243
98 25 2 -0.82 -8.14093 12.0761 -11.0126
99 25 1 0.41 -8.56033 -11.4916 -10.3814
100 25 1 0.41 -7.4456 -11.7024 -11.6382
101 26 2 -0.82 1.56624 -0.16966 -7.26213
102 26 1 0.41 1.68187 0.890137 -7.51946
103 26 1 0.41 1.05073 -0.159311 -6.40777
104 27 2 -0.82 3.65273 -8.62266 1.13834
105 27 1 0.41 3.50699 -8.10552 0.212158
106 27 1 0.41 4.17662 -9.43399 0.675124
107 28 2 -0.82 -4.14457 -8.58904 3.87635
108 28 1 0.41 -4.09811 -7.90592 3.10485
109 28 1 0.41 -3.18805 -8.38821 4.23257
110 29 2 -0.82 -10.5873 -1.02193 5.52306
111 29 1 0.41 -10.1374 -1.91376 5.34723
112 29 1 0.41 -10.5189 -0.485471 4.66487
113 30 2 -0.82 -0.763884 -1.23444 5.17315
114 30 1 0.41 -0.0856993 -1.50002 4.44485
115 30 1 0.41 -1.12016 -2.07427 5.54577
116 31 2 -0.82 10.5927 -9.12845 2.68451
117 31 1 0.41 10.954 -8.16585 2.78353
118 31 1 0.41 10.0574 -9.50915 3.52412
119 32 2 -0.82 -6.26951 -10.9963 11.6624
120 32 1 0.41 -6.41496 -9.9681 11.5144
121 32 1 0.41 -6.74135 -11.4611 10.8446
122 33 2 -0.82 -9.87564 8.93912 4.22609
123 33 1 0.41 -9.65111 9.88447 3.84651
124 33 1 0.41 -9.73065 9.04061 5.24775
125 34 2 -0.82 -4.36625 11.6878 -11.7548
126 34 1 0.41 -5.00262 -11.8302 -12.0865
127 34 1 0.41 -4.24748 11.0069 11.7549
128 35 2 -0.82 10.7269 11.0592 5.14646
129 35 1 0.41 11.5109 11.7475 4.98254
130 35 1 0.41 10.8654 10.42 4.31115
131 36 2 -0.82 -3.91656 3.4222 0.627052
132 36 1 0.41 -3.03114 3.71052 1.05763
133 36 1 0.41 -4.2336 2.46926 0.82699
134 37 2 -0.82 -5.25687 8.84671 11.6547
135 37 1 0.41 -5.80796 9.11844 -11.7632
136 37 1 0.41 -5.69752 7.94094 11.4065
137 38 2 -0.82 -4.4762 9.61998 -4.7389
138 38 1 0.41 -5.40699 9.4771 -4.29733
139 38 1 0.41 -4.43916 8.82339 -5.36374
140 39 2 -0.82 -3.52856 -11.8946 -3.28053
141 39 1 0.41 -3.70125 -11.43 -4.18375
142 39 1 0.41 -4.00334 11.403 -3.34148
143 40 2 -0.82 -10.0754 6.34489 7.8146
144 40 1 0.41 -10.4659 5.55334 8.40011
145 40 1 0.41 -10.7424 6.14201 7.04184
146 41 2 -0.82 0.507609 4.01931 -5.83846
147 41 1 0.41 -0.494003 3.98411 -5.93771
148 41 1 0.41 0.652269 4.25432 -4.88156
149 42 2 -0.82 7.14568 -4.18804 -6.73787
150 42 1 0.41 7.85652 -3.5496 -7.12304
151 42 1 0.41 7.75674 -4.88963 -6.25591
152 43 2 -0.82 10.7435 1.91049 -3.45174
153 43 1 0.41 10.9085 2.80868 -3.13594
154 43 1 0.41 11.5131 1.39205 -3.16555
155 44 2 -0.82 1.55499 2.54878 -7.7299
156 44 1 0.41 0.826271 2.97894 -7.21835
157 44 1 0.41 2.38211 2.64516 -7.17293
158 45 2 -0.82 6.64119 10.1698 -9.2455
159 45 1 0.41 6.42595 9.19839 -9.03863
160 45 1 0.41 6.17675 10.5769 -8.36579
161 46 2 -0.82 5.46662 -6.56732 -0.853154
162 46 1 0.41 5.92933 -7.31931 -0.422786
163 46 1 0.41 5.8907 -5.66454 -0.708297
164 47 2 -0.82 -5.40902 6.47124 9.12594
165 47 1 0.41 -6.24243 6.59149 9.73379
166 47 1 0.41 -5.68065 7.01415 8.2952
167 48 2 -0.82 4.00783 2.93744 -6.30465
168 48 1 0.41 3.73072 3.00598 -5.3041
169 48 1 0.41 5.07473 3.04173 -6.25726
170 49 2 -0.82 -9.69689 5.58437 2.8069
171 49 1 0.41 -10.6043 5.80323 3.24906
172 49 1 0.41 -9.07612 6.36923 3.04989
173 50 2 -0.82 12.1393 -2.28524 12.0958
174 50 1 0.41 -11.0583 -2.23333 -12.1629
175 50 1 0.41 11.7862 -2.65923 11.1921
176 51 2 -0.82 1.58894 9.29006 6.95593
177 51 1 0.41 1.05988 8.74296 7.60477
178 51 1 0.41 0.987152 9.65952 6.18289
179 52 2 -0.82 -9.00629 1.49945 -9.41709
180 52 1 0.41 -9.67469 0.864952 -9.90099
181 52 1 0.41 -8.85216 2.22229 -10.105
182 53 2 -0.82 1.99015 10.7731 -1.5592
183 53 1 0.41 2.29001 11.7667 -1.57305
184 53 1 0.41 2.50194 10.4259 -2.40755
185 54 2 -0.82 -9.55046 -2.02084 11.8171
186 54 1 0.41 -9.95164 -1.01771 -12.414
187 54 1 0.41 -8.55286 -2.02516 11.4961
188 55 2 -0.82 -11.4216 -5.65242 6.00498
189 55 1 0.41 -10.6336 -5.10934 6.37714
190 55 1 0.41 -12.2002 -5.04547 5.6803
191 56 2 -0.82 -9.73399 -11.9473 0.597579
192 56 1 0.41 -8.9317 -11.7508 0.0236632
193 56 1 0.41 -9.9453 -11.0694 1.09276
194 57 2 -0.82 11.8826 6.68591 5.83896
195 57 1 0.41 10.9564 6.95227 6.05666
196 57 1 0.41 12.0878 6.91959 4.85139
197 58 2 -0.82 7.38345 4.7318 4.79804
198 58 1 0.41 6.93492 4.02866 5.47908
199 58 1 0.41 7.89035 5.35615 5.42002
200 59 2 -0.82 -10.5973 4.19913 -8.37786
201 59 1 0.41 -10.2592 5.1478 -8.44749
202 59 1 0.41 -10.4892 3.66138 -9.22478
203 60 2 -0.82 -5.16418 -4.21304 -2.33149
204 60 1 0.41 -5.52797 -4.95066 -1.73136
205 60 1 0.41 -5.66256 -3.30668 -2.08087
206 61 2 -0.82 6.63853 -10.6885 -4.93586
207 61 1 0.41 7.15932 -9.9059 -4.52769
208 61 1 0.41 6.64123 -10.6294 -5.98807
209 62 2 -0.82 10.9321 -0.869057 3.91322
210 62 1 0.41 11.0227 -1.26864 4.84483
211 62 1 0.41 9.94773 -0.602785 3.9378
212 63 2 -0.82 6.37766 10.594 9.90196
213 63 1 0.41 6.25005 10.0439 10.7793
214 63 1 0.41 6.54229 11.5778 10.0581
215 64 2 -0.82 -6.97551 9.45718 -10.3958
216 64 1 0.41 -7.21017 10.5416 -10.3924
217 64 1 0.41 -6.3174 9.37765 -9.57344
218 65 2 -0.82 -0.339976 9.64001 -3.55093
219 65 1 0.41 0.64042 9.95903 -3.71776
220 65 1 0.41 -0.370172 8.66354 -3.24378
221 66 2 -0.82 -11.0859 -11.238 11.6987
222 66 1 0.41 -11.6841 -10.3626 11.9073
223 66 1 0.41 -10.2063 -11.0865 -12.0657
224 67 2 -0.82 -3.83677 7.7958 -6.51936
225 67 1 0.41 -4.16417 6.81125 -6.64078
226 67 1 0.41 -2.89767 7.96457 -6.93988
227 68 2 -0.82 -11.1878 -9.71365 7.46588
228 68 1 0.41 -11.5317 -9.16829 6.64567
229 68 1 0.41 12.2365 -10.0287 7.96603
230 69 2 -0.82 -7.42932 9.25097 -1.99255
231 69 1 0.41 -8.31025 9.14425 -1.5274
232 69 1 0.41 -7.60621 8.80556 -2.92917
233 70 2 -0.82 8.1333 -4.85715 6.51833
234 70 1 0.41 7.24249 -4.81424 7.07287
235 70 1 0.41 8.83235 -5.53693 6.86273
236 71 2 -0.82 -0.425139 5.58673 0.553352
237 71 1 0.41 -0.910857 6.48137 0.308957
238 71 1 0.41 0.490209 5.65161 1.0358
239 72 2 -0.82 -4.62713 -4.89494 1.52821
240 72 1 0.41 -4.71706 -4.70115 2.52625
241 72 1 0.41 -4.92703 -4.02418 1.04047
242 73 2 -0.82 4.12996 6.54377 8.01271
243 73 1 0.41 3.93597 5.51928 8.34086
244 73 1 0.41 3.58005 7.15757 8.65247
245 74 2 -0.82 9.76209 -8.89696 -6.85106
246 74 1 0.41 9.07012 -9.63748 -7.03228
247 74 1 0.41 10.0643 -9.00198 -5.83781
248 75 2 -0.82 11.7244 -9.22131 -8.8092
249 75 1 0.41 11.0263 -8.89889 -8.05722
250 75 1 0.41 11.77 -8.47609 -9.55373
251 76 2 -0.82 -10.4511 7.09472 -8.72265
252 76 1 0.41 -10.9147 7.07504 -7.79785
253 76 1 0.41 -11.1599 7.31111 -9.48139
254 77 2 -0.82 -7.19694 -11.3773 -0.471299
255 77 1 0.41 -6.86336 -10.4665 -0.735109
256 77 1 0.41 -6.39116 -12.0303 -0.393311
257 78 2 -0.82 1.4838 -10.6498 1.27805
258 78 1 0.41 0.757139 -10.5486 0.534634
259 78 1 0.41 2.2158 -10.1205 0.870232
260 79 2 -0.82 -6.12805 -4.11453 8.46639
261 79 1 0.41 -6.37542 -3.15254 8.33147
262 79 1 0.41 -5.10668 -4.19016 8.30513
263 80 2 -0.82 -7.75595 -8.80816 -2.89879
264 80 1 0.41 -7.67966 -8.86817 -1.86248
265 80 1 0.41 -7.16794 -8.0879 -3.32841
266 81 2 -0.82 -0.585851 -8.39351 8.28189
267 81 1 0.41 0.396813 -8.73888 7.99289
268 81 1 0.41 -0.647102 -8.4684 9.26918
269 82 2 -0.82 2.07379 11.3585 -5.78645
270 82 1 0.41 1.67072 10.4424 -5.60803
271 82 1 0.41 2.87682 11.3445 -5.10823
272 83 2 -0.82 -3.58779 -7.59841 11.1475
273 83 1 0.41 -2.83969 -8.26479 11.1701
274 83 1 0.41 -4.27274 -7.75047 11.9133
275 84 2 -0.82 -10.1248 -9.27196 1.53668
276 84 1 0.41 -9.11932 -9.24668 1.78072
277 84 1 0.41 -10.4172 -8.31222 1.30146
278 85 2 -0.82 -10.986 -0.668477 -4.11028
279 85 1 0.41 -11.5511 -1.50453 -4.22901
280 85 1 0.41 -10.683 -0.337695 -5.06924
281 86 2 -0.82 4.67633 0.890487 11.4914
282 86 1 0.41 4.26782 0.145813 10.8685
283 86 1 0.41 5.62371 0.627825 11.8416
284 87 2 -0.82 -11.3816 8.4716 12.0142
285 87 1 0.41 12.2094 8.05282 -11.5143
286 87 1 0.41 -11.0172 9.32778 -11.7837
287 88 2 -0.82 0.515422 -10.3063 4.14941
288 88 1 0.41 0.86498 -10.604 3.21371
289 88 1 0.41 1.00748 -10.8201 4.86647
290 89 2 -0.82 3.56744 8.46346 -8.05422
291 89 1 0.41 3.33025 8.96551 -8.91569
292 89 1 0.41 2.84249 7.75534 -7.91792
293 90 2 -0.82 11.5435 -6.44479 3.12623
294 90 1 0.41 11.394 -5.64495 3.75081
295 90 1 0.41 12.0095 -6.24128 2.18787
296 91 2 -0.82 3.45252 9.37988 -10.6972
297 91 1 0.41 2.84433 10.1853 -10.8552
298 91 1 0.41 4.33031 9.54236 -11.1975
299 92 2 -0.82 -9.7283 -7.73965 -9.66455
300 92 1 0.41 -10.6113 -7.21604 -9.90093
301 92 1 0.41 -8.92921 -7.23355 -9.37638
302 93 2 -0.82 -4.43672 2.43164 -5.21235
303 93 1 0.41 -4.25445 1.52458 -4.73419
304 93 1 0.41 -3.57213 2.85288 -5.48645
305 94 2 -0.82 3.15739 2.56282 -3.22505
306 94 1 0.41 2.27497 2.82788 -2.77494
307 94 1 0.41 3.32589 1.56578 -2.89591
308 95 2 -0.82 2.30149 6.32584 -6.50228
309 95 1 0.41 2.18363 5.79505 -5.65626
310 95 1 0.41 1.43419 6.20553 -7.05807
311 96 2 -0.82 -12.25 9.94464 7.55305
312 96 1 0.41 11.5408 10.3995 6.71498
313 96 1 0.41 -11.2538 9.73838 7.34379
314 97 2 -0.82 4.87182 3.14908 0.687281
315 97 1 0.41 5.6233 3.15819 1.41079
316 97 1 0.41 5.10476 2.68149 -0.185759
317 98 2 -0.82 0.0810996 -0.439448 -9.47989
318 98 1 0.41 0.727561 -0.377572 -8.66982
319 98 1 0.41 0.64007 -0.342511 -10.3267
320 99 2 -0.82 -0.245203 9.7216 4.79762
321 99 1 0.41 -0.859753 10.5054 4.50541
322 99 1 0.41 -0.662739 8.90865 4.43218
323 100 2 -0.82 5.77847 11.9697 6.28138
324 100 1 0.41 6.49195 11.6308 6.93775
325 100 1 0.41 4.83892 11.5442 6.4721
326 101 2 -0.82 11.0311 -4.44822 -10.4737
327 101 1 0.41 11.5327 -3.75041 -11.0595
328 101 1 0.41 11.1482 -4.24395 -9.50771
329 102 2 -0.82 -9.51237 3.41411 -3.05789
330 102 1 0.41 -8.90515 3.20739 -3.87104
331 102 1 0.41 -8.94025 3.31588 -2.20757
332 103 2 -0.82 -7.81948 0.695408 -1.9405
333 103 1 0.41 -7.40194 0.267209 -2.76881
334 103 1 0.41 -8.49561 0.0249887 -1.50321
335 104 2 -0.82 -2.10058 -1.68354 -9.50384
336 104 1 0.41 -2.1835 -2.48157 -10.1702
337 104 1 0.41 -1.17961 -1.16478 -9.50858
338 105 2 -0.82 -5.22693 0.145013 12.0211
339 105 1 0.41 -4.97309 -0.236632 -11.3469
340 105 1 0.41 -6.23654 0.0407255 11.715
341 106 2 -0.82 5.7463 -4.53122 8.19855
342 106 1 0.41 6.30781 -4.27689 8.99134
343 106 1 0.41 4.75401 -4.6993 8.33179
344 107 2 -0.82 8.50793 1.77705 4.82039
345 107 1 0.41 8.01272 1.77299 3.93614
346 107 1 0.41 7.75654 1.79137 5.54928
347 108 2 -0.82 -0.451845 -7.13028 -0.220722
348 108 1 0.41 -1.35184 -7.43636 0.12402
349 108 1 0.41 -0.0442837 -8.0007 -0.562472
350 109 2 -0.82 5.69314 9.47603 -12.0957
351 109 1 0.41 5.47737 8.50387 11.9528
352 109 1 0.41 6.21836 9.51072 -11.2111
353 110 2 -0.82 9.83274 1.55133 11.1671
354 110 1 0.41 9.19885 0.846089 11.6484
355 110 1 0.41 10.4382 1.05055 10.4136
356 111 2 -0.82 5.1984 -10.6389 -8.99886
357 111 1 0.41 4.37669 -11.2824 -9.10918
358 111 1 0.41 4.88565 -9.66014 -8.98081
359 112 2 -0.82 -3.94024 -4.37634 -4.9263
360 112 1 0.41 -4.17627 -4.08635 -3.95755
361 112 1 0.41 -2.92201 -4.25731 -4.97586
362 113 2 -0.82 -7.95069 4.2784 9.21048
363 113 1 0.41 -7.99244 4.45556 8.18477
364 113 1 0.41 -7.96228 5.19909 9.69106
365 114 2 -0.82 -6.16882 10.3668 9.5451
366 114 1 0.41 -5.96937 9.76904 10.4091
367 114 1 0.41 -5.2573 10.7227 9.24352
368 115 2 -0.82 9.21298 -4.79371 -2.34366
369 115 1 0.41 9.39379 -5.59116 -1.78606
370 115 1 0.41 8.97606 -3.98724 -1.74556
371 116 2 -0.82 8.12284 -4.12842 3.97526
372 116 1 0.41 7.99962 -4.19087 5.01884
373 116 1 0.41 7.47976 -4.81044 3.50246
374 117 2 -0.82 10.8957 -6.28076 9.98185
375 117 1 0.41 11.8005 -6.72761 10.0331
376 270 1 0.41 -8.58992 -12.3223 5.18866
377 118 2 -0.82 3.12886 2.6032 3.01159
378 118 1 0.41 3.45547 3.58272 2.9498
379 118 1 0.41 2.23521 2.59473 3.54864
380 119 2 -0.82 9.71779 -11.0122 -2.69608
381 119 1 0.41 9.90166 -10.017 -2.53882
382 119 1 0.41 10.4144 -11.4036 -3.32998
383 120 2 -0.82 3.02008 -11.9151 3.11115
384 120 1 0.41 3.93014 -12.187 2.88507
385 120 1 0.41 2.65939 -11.4317 2.28018
386 121 2 -0.82 -4.39851 5.20854 -7.55502
387 121 1 0.41 -4.20588 5.01088 -8.54839
388 121 1 0.41 -5.36885 4.90722 -7.25811
389 122 2 -0.82 -1.9629 -9.96834 -1.98795
390 122 1 0.41 -2.7406 -9.52842 -1.47497
391 122 1 0.41 -2.24374 -10.6644 -2.72061
392 123 2 -0.82 -7.53287 8.32346 -4.53683
393 123 1 0.41 -7.61291 8.51793 -5.55465
394 123 1 0.41 -7.72499 7.30248 -4.51034
395 124 2 -0.82 -7.32325 -10.0824 -7.35053
396 124 1 0.41 -7.95618 -10.7069 -6.83369
397 124 1 0.41 -6.40752 -10.6162 -7.4027
398 125 2 -0.82 6.77516 -0.557117 8.9377
399 125 1 0.41 7.43172 -1.07299 8.28993
400 125 1 0.41 6.27452 -1.20689 9.53462
401 126 2 -0.82 -9.57131 7.1889 -1.57606
402 126 1 0.41 -8.61673 6.7366 -1.62966
403 126 1 0.41 -10.2488 6.54546 -1.1451
404 127 2 -0.82 -9.3189 -1.44962 1.47352
405 127 1 0.41 -10.0593 -1.10411 2.09186
406 127 1 0.41 -8.29871 -1.2616 1.78073
407 128 2 -0.82 -1.27261 -8.96888 11.22
408 128 1 0.41 -1.00515 -8.12893 11.7994
409 128 1 0.41 -1.40497 -9.86713 11.7495
410 129 2 -0.82 -7.51502 7.92958 -7.25053
411 129 1 0.41 -7.38388 6.96878 -7.62465
412 129 1 0.41 -6.79582 8.46653 -7.71733
413 130 2 -0.82 6.69295 7.35922 -5.72878
414 130 1 0.41 7.43657 7.48122 -6.48764
415 130 1 0.41 5.88213 6.98023 -6.26749
416 131 2 -0.82 0.853921 4.04639 -2.12651
417 131 1 0.41 0.00560549 4.29589 -2.64077
418 131 1 0.41 0.786055 4.35239 -1.14383
419 132 2 -0.82 4.44448 -6.52807 11.0451
420 132 1 0.41 3.74027 -6.06083 10.4602
421 132 1 0.41 5.31191 -6.48208 10.49
422 133 2 -0.82 -8.43408 7.06027 -10.5622
423 133 1 0.41 -9.20385 6.95803 -9.89519
424 133 1 0.41 -8.12195 8.04391 -10.6247
425 134 2 -0.82 7.25263 -11.7935 -10.3973
426 134 1 0.41 6.45341 -11.3995 -9.87883
427 134 1 0.41 7.05327 11.4292 -10.4964
428 135 2 -0.82 1.44159 1.68429 0.606796
429 135 1 0.41 2.31908 1.26164 1.01654
430 135 1 0.41 1.63095 2.66325 0.829065
431 136 2 -0.82 -7.04202 5.05168 -6.93092
432 136 1 0.41 -7.35039 4.04316 -6.95946
433 136 1 0.41 -7.29653 5.36409 -5.96293
434 137 2 -0.82 -6.16911 10.2109 5.54354
435 137 1 0.41 -5.38102 10.193 4.85837
436 137 1 0.41 -6.34739 11.1689 5.7202
437 138 2 -0.82 -3.7306 -7.23402 -5.06046
438 138 1 0.41 -2.94158 -7.25664 -4.38114
439 138 1 0.41 -4.06744 -6.27993 -5.27483
440 139 2 -0.82 -5.5748 7.74499 6.6508
441 139 1 0.41 -4.7275 8.07777 7.17156
442 139 1 0.41 -5.94388 8.65499 6.22438
443 140 2 -0.82 9.2272 -9.91985 -10.6875
444 140 1 0.41 9.39906 -9.92739 -9.68955
445 140 1 0.41 8.47168 -10.6683 -10.7163
446 141 2 -0.82 -4.77612 11.1809 -1.07653
447 141 1 0.41 -4.92306 10.2992 -1.62319
448 141 1 0.41 -4.08614 11.7271 -1.60935
449 142 2 -0.82 -8.20587 -3.70118 -5.15988
450 142 1 0.41 -9.14861 -4.1118 -5.13416
451 142 1 0.41 -8.45038 -2.6955 -5.47131
452 143 2 -0.82 -10.2859 0.370593 -6.44107
453 143 1 0.41 -10.338 -0.26906 -7.2679
454 143 1 0.41 -10.9868 1.16857 -6.47827
455 144 2 -0.82 3.53533 0.343014 1.47302
456 144 1 0.41 3.46135 1.10898 2.17636
457 144 1 0.41 4.55347 0.189395 1.40094
458 145 2 -0.82 -4.00426 7.77494 1.63819
459 145 1 0.41 -4.5124 6.88338 1.64691
460 145 1 0.41 -4.69804 8.50002 1.49453
461 146 2 -0.82 -11.8896 8.50004 0.565392
462 146 1 0.41 12.0119 9.15981 -0.135935
463 146 1 0.41 -11.7554 7.63302 0.0533014
464 147 2 -0.82 -0.146337 -4.48873 11.073
465 147 1 0.41 -0.223491 -5.4594 11.4351
466 147 1 0.41 -1.06891 -3.98437 11.2303
467 148 2 -0.82 2.89715 -5.26619 8.7445
468 148 1 0.41 3.03693 -6.14734 8.28717
469 148 1 0.41 1.93976 -4.97687 8.52352
470 149 2 -0.82 2.64618 -12.268 9.68552
471 149 1 0.41 1.79131 -11.7402 9.41885
472 149 1 0.41 2.34072 11.0545 10.0645
473 150 2 -0.82 -0.588166 10.5626 -7.85116
474 150 1 0.41 -1.34196 9.87717 -8.01873
475 150 1 0.41 -0.465235 10.7859 -6.86994
476 151 2 -0.82 -7.69196 5.80769 6.60502
477 151 1 0.41 -7.08648 6.62357 6.4443
478 151 1 0.41 -8.65683 6.06358 6.92681
479 152 2 -0.82 4.79715 -10.6503 10.6055
480 152 1 0.41 4.69789 -10.0171 11.4101
481 152 1 0.41 4.00197 -11.1373 10.1821
482 153 2 -0.82 0.725563 -9.65522 -1.01964
483 153 1 0.41 -0.0511718 -10.246 -1.27353
484 153 1 0.41 1.17444 -9.27813 -1.86502
485 154 2 -0.82 -3.77549 5.1691 -10.2226
486 154 1 0.41 -2.81624 4.6888 -10.2543
487 154 1 0.41 -4.5035 4.44647 -10.1534
488 155 2 -0.82 9.07981 4.9969 -9.70401
489 155 1 0.41 9.70511 4.48246 -10.3818
490 155 1 0.41 9.01061 4.30333 -8.97893
491 156 2 -0.82 -7.47516 5.68239 -4.29242
492 156 1 0.41 -7.53856 6.0601 -3.33263
493 156 1 0.41 -7.49879 4.66821 -4.32315
494 157 2 -0.82 -11.9417 1.95899 -10.4953
495 157 1 0.41 11.7473 2.67516 -11.0009
496 157 1 0.41 11.7172 1.03073 -10.5379
497 158 2 -0.82 7.50056 -0.165331 -11.9319
498 158 1 0.41 7.97329 -0.84111 -11.2865
499 158 1 0.41 7.10484 -0.902039 11.6988
500 159 2 -0.82 -9.89429 3.11103 6.0759
501 159 1 0.41 -10.2522 2.54384 6.86454
502 159 1 0.41 -8.89413 2.89994 6.05322
503 160 2 -0.82 -9.12054 -10.222 -9.30467
504 160 1 0.41 -9.30464 -9.21713 -9.45908
505 160 1 0.41 -8.30982 -10.2458 -8.66003
506 161 2 -0.82 -10.7604 -6.74134 1.06162
507 161 1 0.41 -9.87245 -6.22777 0.988137
508 161 1 0.41 -11.361 -5.99588 0.703926
509 162 2 -0.82 -9.40061 -5.62487 3.50626
510 162 1 0.41 -10.2592 -6.09685 3.34988
511 162 1 0.41 -8.96761 -6.07208 4.33362
512 163 2 -0.82 6.90093 2.99546 2.5794
513 163 1 0.41 7.5982 3.51626 2.02578
514 163 1 0.41 7.07352 3.27112 3.55787
515 164 2 -0.82 6.62467 -3.81904 -9.5118
516 164 1 0.41 5.82861 -3.38271 -10.0029
517 164 1 0.41 6.46224 -3.94872 -8.51981
518 165 2 -0.82 -2.16049 -6.49051 -9.4503
519 165 1 0.41 -2.46113 -7.31734 -8.90113
520 165 1 0.41 -2.77008 -5.7262 -9.18873
521 166 2 -0.82 4.48695 -8.11677 -8.93168
522 166 1 0.41 5.19997 -7.83747 -8.25506
523 166 1 0.41 3.90946 -7.3448 -9.29669
524 167 2 -0.82 -2.72673 -3.1311 10.9662
525 167 1 0.41 -2.99985 -2.25638 10.6184
526 167 1 0.41 -3.2218 -3.29208 11.8106
527 168 2 -0.82 3.20395 7.15074 5.43527
528 168 1 0.41 3.62116 6.8088 6.36255
529 168 1 0.41 2.78333 8.03157 5.68055
530 169 2 -0.82 2.83454 -6.74359 -2.65043
531 169 1 0.41 2.26861 -6.0286 -3.15565
532 169 1 0.41 3.4445 -6.2457 -2.00632
533 170 2 -0.82 -4.44812 -0.158017 -9.67128
534 170 1 0.41 -4.46969 0.598282 -8.99097
535 170 1 0.41 -3.66184 -0.816088 -9.53861
536 171 2 -0.82 0.551282 -4.16456 8.31433
537 171 1 0.41 0.379606 -4.24298 7.35072
538 171 1 0.41 -0.351496 -4.25311 8.78203
539 172 2 -0.82 -6.90188 9.4064 1.29929
540 172 1 0.41 -6.55188 9.66442 0.408601
541 172 1 0.41 -7.91385 9.35879 1.47339
542 173 2 -0.82 -6.67687 -5.80999 -0.202389
543 173 1 0.41 -5.89256 -5.64485 0.404998
544 173 1 0.41 -7.47165 -5.30124 0.185823
545 174 2 -0.82 2.28481 -4.37044 3.36977
546 174 1 0.41 2.72495 -5.29245 3.68273
547 174 1 0.41 1.3123 -4.63246 3.08294
548 175 2 -0.82 7.66928 10.9295 -5.58803
549 175 1 0.41 7.21232 10.1017 -5.26181
550 175 1 0.41 8.0571 11.5281 -4.84146
551 176 2 -0.82 -5.25705 9.57479 -8.10317
552 176 1 0.41 -4.70456 9.12333 -7.36747
553 176 1 0.41 -4.62618 10.2141 -8.51496
554 177 2 -0.82 11.8871 -3.96459 9.52655
555 177 1 0.41 -11.5003 -4.26196 8.9912
556 177 1 0.41 11.2247 -4.76699 9.56921
557 178 2 -0.82 -2.41744 -5.11619 4.47323
558 178 1 0.41 -1.95679 -5.42402 5.30236
559 178 1 0.41 -3.44209 -5.00312 4.59655
560 179 2 -0.82 -8.17073 2.40655 -7.06996
561 179 1 0.41 -8.2571 2.00061 -8.04105
562 179 1 0.41 -9.08322 2.05837 -6.74182
563 180 2 -0.82 -2.03023 3.97515 11.4038
564 180 1 0.41 -2.93448 3.58755 11.6996
565 180 1 0.41 -2.24914 4.89121 11.0119
566 181 2 -0.82 10.7708 -4.17456 4.70564
567 181 1 0.41 10.8505 -3.29372 5.2427
568 181 1 0.41 9.76771 -4.32173 4.56411
569 182 2 -0.82 5.03656 10.4392 -7.19723
570 182 1 0.41 4.31217 9.74021 -7.48461
571 182 1 0.41 4.77116 10.7481 -6.25461
572 183 2 -0.82 7.45937 -4.98333 10.3878
573 183 1 0.41 7.92645 -5.11666 11.282
574 183 1 0.41 7.68046 -5.78395 9.79896
575 184 2 -0.82 -1.78717 -5.73508 7.62408
576 184 1 0.41 -2.3648 -5.75035 8.4599
577 184 1 0.41 -1.40498 -6.70721 7.68454
578 185 2 -0.82 -10.5311 -5.33909 -5.61584
579 185 1 0.41 -10.7962 -4.78867 -6.50861
580 185 1 0.41 -9.86867 -6.03958 -5.92175
581 186 2 -0.82 7.89847 1.85268 -3.94825
582 186 1 0.41 8.69963 2.08676 -3.38158
583 186 1 0.41 7.06338 2.20614 -3.41469
584 187 2 -0.82 -0.424507 -6.72008 -11.5844
585 187 1 0.41 0.509325 -6.78972 -11.1874
586 187 1 0.41 -1.02158 -6.61779 -10.7311
587 188 2 -0.82 -10.5826 -7.63674 -2.47169
588 188 1 0.41 -11.0399 -7.38143 -3.38033
589 188 1 0.41 -9.5824 -7.79302 -2.57759
590 189 2 -0.82 -1.32098 10.5964 -0.891781
591 189 1 0.41 -0.336481 10.8964 -0.854508
592 189 1 0.41 -1.71542 10.8928 -1.7998
593 190 2 -0.82 -12.0942 -3.7332 -3.8529
594 190 1 0.41 -11.7216 -4.41685 -4.54302
595 190 1 0.41 11.1117 -3.89483 -3.75271
596 191 2 -0.82 5.12872 8.53801 -0.311195
597 191 1 0.41 5.44565 7.6017 -0.353095
598 191 1 0.41 4.71549 8.67571 0.600523
599 192 2 -0.82 -11.3015 -8.24137 9.92483
600 192 1 0.41 -11.4661 -8.53248 8.93774
601 192 1 0.41 -10.4975 -8.84266 10.1126
602 193 2 -0.82 11.8181 2.21113 -6.27605
603 193 1 0.41 11.2813 1.95717 -5.41013
604 193 1 0.41 11.2837 1.93335 -7.06434
605 194 2 -0.82 -1.8741 8.41874 -8.19176
606 194 1 0.41 -1.01507 7.91104 -8.37755
607 194 1 0.41 -2.47865 8.27875 -9.02892
608 195 2 -0.82 11.875 -7.02353 -10.4657
609 195 1 0.41 11.7251 -7.51074 -11.3777
610 195 1 0.41 11.5266 -6.05543 -10.6131
611 196 2 -0.82 9.02309 6.9183 6.03841
612 196 1 0.41 8.6654 7.68607 5.47923
613 196 1 0.41 8.45832 6.7355 6.88105
614 197 2 -0.82 -5.5977 3.12105 -10.3157
615 197 1 0.41 -5.55823 2.48518 -9.51727
616 197 1 0.41 -6.39718 3.75661 -10.3866
617 198 2 -0.82 5.18525 6.87398 -12.0319
618 198 1 0.41 6.06872 6.30627 12.16
619 198 1 0.41 4.72787 6.55727 -11.1768
620 199 2 -0.82 -9.1699 1.8611 9.9969
621 199 1 0.41 -8.97493 2.90265 9.8502
622 199 1 0.41 -9.82714 1.60384 9.28996
623 200 2 -0.82 -1.37851 5.98747 5.27748
624 200 1 0.41 -0.416834 5.62085 5.32284
625 200 1 0.41 -2.03708 5.30324 5.6006
626 201 2 -0.82 -11.5656 2.60026 4.11228
627 201 1 0.41 -11.2947 3.20446 4.82307
628 201 1 0.41 -12.0625 3.25386 3.45315
629 202 2 -0.82 -7.90293 -11.618 9.33731
630 202 1 0.41 -8.90827 -11.8729 9.00581
631 202 1 0.41 -7.19147 11.8157 9.42248
632 203 2 -0.82 4.05687 1.44176 5.21235
633 203 1 0.41 3.63435 2.0609 4.54005
634 203 1 0.41 3.38455 0.682656 5.33506
635 204 2 -0.82 -3.47372 8.43089 8.10023
636 204 1 0.41 -3.48054 9.23819 8.70046
637 204 1 0.41 -2.57661 7.95851 8.01415
638 205 2 -0.82 8.89332 -7.75839 11.9873
639 205 1 0.41 8.59672 -6.87259 -11.8509
640 205 1 0.41 8.88716 -8.50989 -11.4906
641 206 2 -0.82 -11.1556 -9.96554 -6.49779
642 206 1 0.41 -11.2683 -9.47465 -7.406
643 206 1 0.41 -10.3835 -10.6533 -6.49467
644 207 2 -0.82 12.1721 4.47043 -3.34134
645 207 1 0.41 -11.0963 4.22693 -3.54354
646 207 1 0.41 -12.3233 4.42624 -2.34826
647 208 2 -0.82 -5.96056 -5.31626 11.2501
648 208 1 0.41 -6.95239 -4.9869 11.221
649 208 1 0.41 -5.70729 -5.21505 10.2863
650 209 2 -0.82 -3.82645 -11.0634 2.57076
651 209 1 0.41 -3.86403 -10.2116 3.12479
652 209 1 0.41 -4.76137 -11.4808 2.54651
653 210 2 -0.82 4.32734 5.05284 -9.80422
654 210 1 0.41 4.64054 5.10152 -8.83701
655 210 1 0.41 5.02506 4.47592 -10.3172
656 211 2 -0.82 -8.00529 -7.62383 5.4484
657 211 1 0.41 -7.39336 -6.95852 6.00509
658 211 1 0.41 -7.41942 -8.43432 5.22046
659 212 2 -0.82 2.24346 8.74291 -4.12211
660 212 1 0.41 1.47088 8.1097 -4.40013
661 212 1 0.41 3.09504 8.21723 -3.97165
662 213 2 -0.82 -3.68987 -0.201034 -4.67488
663 213 1 0.41 -3.44468 -0.826308 -5.45927
664 213 1 0.41 -2.9641 -0.478295 -3.95979
665 214 2 -0.82 2.05204 -5.03085 -0.53817
666 214 1 0.41 1.26932 -5.19409 0.0325935
667 214 1 0.41 1.61544 -4.71987 -1.40282
668 215 2 -0.82 -4.05685 10.1811 3.99011
669 215 1 0.41 -3.28726 9.50718 3.78354
670 215 1 0.41 -3.78739 11.1323 3.63528
671 216 2 -0.82 -2.47226 6.1802 9.94273
672 216 1 0.41 -2.01001 6.61468 9.11114
673 216 1 0.41 -3.43996 6.54138 9.88744
674 217 2 -0.82 6.18509 2.29265 -1.77033
675 217 1 0.41 6.66511 1.47093 -1.41698
676 217 1 0.41 5.29701 2.17592 -2.19339
677 218 2 -0.82 1.18965 5.34207 5.29652
678 218 1 0.41 1.10526 5.31487 6.34752
679 218 1 0.41 1.91525 5.99048 4.95659
680 219 2 -0.82 -0.472415 0.259928 -0.553327
681 219 1 0.41 -1.29321 0.0586112 -0.0248605
682 219 1 0.41 0.149683 0.724343 0.119053
683 220 2 -0.82 10.4311 3.49712 -11.5321
684 220 1 0.41 10.0369 2.70715 12.1772
685 220 1 0.41 10.8094 4.17872 -12.2026
686 221 2 -0.82 10.7314 -1.77593 9.23985
687 221 1 0.41 11.2337 -2.68338 9.41689
688 221 1 0.41 9.76361 -2.0043 9.01378
689 222 2 -0.82 8.1135 11.1718 -1.98888
690 222 1 0.41 8.8056 11.9247 -2.12379
691 222 1 0.41 8.5463 10.3756 -2.42675
692 223 2 -0.82 8.34467 8.96765 9.15593
693 223 1 0.41 7.43294 9.46648 9.10513
694 223 1 0.41 8.07522 8.10408 8.7643
695 224 2 -0.82 8.71487 -2.19444 -10.3915
696 224 1 0.41 8.44286 -2.04782 -9.39747
697 224 1 0.41 8.08127 -2.9416 -10.62
698 225 2 -0.82 -10.8231 -1.10991 -8.8532
699 225 1 0.41 -10.6654 -2.12814 -8.83076
700 225 1 0.41 -11.6955 -0.943491 -9.39288
701 226 2 -0.82 1.51765 -4.21075 -3.48605
702 226 1 0.41 1.48233 -3.18512 -3.26641
703 226 1 0.41 0.598699 -4.45244 -3.86963
704 227 2 -0.82 -4.51048 1.83435 -7.81312
705 227 1 0.41 -3.54729 1.9401 -8.09112
706 227 1 0.41 -4.84358 2.07574 -6.82064
707 228 2 -0.82 -10.4773 -4.41004 -1.82527
708 228 1 0.41 -11.1463 -4.3612 -2.61203
709 228 1 0.41 -10.1499 -5.29621 -1.4935
710 229 2 -0.82 -7.20835 7.08764 11.0401
711 229 1 0.41 -8.09562 7.49477 10.6873
712 229 1 0.41 -7.64963 6.8572 11.9424
713 230 2 -0.82 4.24529 8.45938 2.35624
714 230 1 0.41 4.7129 7.69126 2.87239
715 230 1 0.41 3.45071 8.79606 2.91971
716 231 2 -0.82 -4.57442 3.72686 8.79681
717 231 1 0.41 -4.89986 4.6881 8.87391
718 231 1 0.41 -4.70885 3.36535 9.74413
719 232 2 -0.82 -6.42042 -12.0229 2.66166
720 232 1 0.41 -7.3513 12.0826 3.00945
721 232 1 0.41 -6.34394 11.5304 1.88359
722 233 2 -0.82 -0.266559 -4.53718 2.29363
723 233 1 0.41 -0.524835 -4.02475 1.49219
724 233 1 0.41 -0.934147 -5.00346 2.84147
725 234 2 -0.82 5.31762 -9.90076 8.05161
726 234 1 0.41 5.08713 -10.3561 8.93891
727 234 1 0.41 5.49366 -10.546 7.30069
728 235 2 -0.82 -11.4687 1.86298 0.586621
729 235 1 0.41 -11.3485 1.22576 1.37396
730 235 1 0.41 -11.422 1.42587 -0.360255
731 236 2 -0.82 2.38741 4.75987 1.15846
732 236 1 0.41 3.28152 4.56803 0.728031
733 236 1 0.41 2.67062 5.15335 2.09915
734 237 2 -0.82 9.99125 -3.15869 1.85651
735 237 1 0.41 9.51546 -3.26792 2.7317
736 237 1 0.41 10.7474 -2.51785 1.89608
737 238 2 -0.82 2.28559 -6.81997 -10.6549
738 238 1 0.41 2.04482 -5.93471 -10.1918
739 238 1 0.41 2.81653 -6.67016 -11.4876
740 239 2 -0.82 -8.83413 -3.13074 4.83703
741 239 1 0.41 -7.8857 -2.78863 4.7652
742 239 1 0.41 -8.97566 -3.94965 4.16071