ITEM: TIMESTEP
295000
ITEM: NUMBER OF ATOMS
1429
ITEM: BOX BOUNDS pp pp pp
-12.1247 12.1247
-12.1247 12.1247
-12.1247 12.1247
ITEM: ATOMS id mol type q x y z 
1 1 6 0.09 -2.25621 4.34553 -11.4489 
2 1 15 -0.27 -1.73146 3.97918 11.8749 
3 1 6 0.09 -1.50605 2.85327 12.001 
4 1 6 0.09 -2.28673 4.21447 11.0237 
5 1 8 0.51 -0.419009 4.58896 11.6785 
6 1 9 -0.51 0.117564 5.19652 -11.6926 
7 2 10 -0.47 0.13805 4.44231 10.4774 
8 2 11 0.31 -0.35156 3.98779 9.77454 
9 2 3 0.07 1.43202 4.97028 10.1506 
10 2 4 0.09 1.88747 5.06714 11.0757 
11 2 3 -0.18 2.30567 4.10103 9.20804 
12 2 6 0.09 1.55686 3.80572 8.41103 
13 2 6 0.09 3.00818 4.71146 8.68783 
14 2 5 -0.21 2.83287 2.81267 9.90939 
15 2 6 0.09 2.16059 2.10574 10.239 
16 2 6 0.09 3.53312 2.25345 9.11628 
17 2 36 0.75 3.85723 3.22288 10.9153 
18 2 37 -0.55 4.9156 3.78102 10.6208 
19 2 14 -0.61 3.57654 2.89457 -12.0647 
20 2 8 0.51 1.24851 6.37064 9.67002 
21 2 9 -0.51 0.118923 6.82361 9.74241 
22 3 10 -0.47 2.32087 7.06548 9.15427 
23 3 11 0.31 3.28226 6.77532 9.01967 
24 3 15 -0.11 2.09471 8.44151 8.9734 
25 3 6 0.09 3.04749 9.11815 9.00157 
26 3 6 0.09 1.65894 8.55892 7.96266 
27 3 6 0.09 1.34504 8.91235 9.6829 
28 4 38 -0.82 9.91835 -5.85857 5.6963 
29 4 39 0.41 10.8235 -5.48701 5.39516 
30 4 39 0.41 9.56416 -5.22451 6.4734 
31 257 39 0.41 -5.61715 11.4331 1.83646 
32 5 38 -0.82 11.5274 -11.8701 6.42638 
33 5 39 0.41 11.2223 11.9082 5.52436 
34 5 39 0.41 11.3469 -10.8705 6.43851 
35 6 38 -0.82 1.19644 4.01747 -8.32407 
36 6 39 0.41 1.00051 4.26967 -7.3674 
37 6 39 0.41 1.56751 4.83441 -8.83156 
38 7 38 -0.82 -8.68989 8.02347 -6.64573 
39 7 39 0.41 -8.45509 7.53656 -7.51393 
40 7 39 0.41 -9.69374 8.05433 -6.55696 
41 8 38 -0.82 -6.93602 7.28649 1.81724 
42 8 39 0.41 -6.17839 7.9557 1.43575 
43 8 39 0.41 -7.44354 7.70427 2.56312 
44 9 38 -0.82 -3.94553 -6.63507 -4.59293 
45 9 39 0.41 -3.78533 -6.66987 -3.55802 
46 9 39 0.41 -4.31771 -5.66574 -4.76497 
47 10 38 -0.82 0.918856 6.50011 6.25128 
48 10 39 0.41 1.15705 6.79761 7.2642 
49 10 39 0.41 1.83389 6.43941 5.82218 
50 11 38 -0.82 4.28858 -1.00461 8.95507 
51 11 39 0.41 4.17795 -1.8632 8.36794 
52 11 39 0.41 4.68907 -0.21688 8.40352 
53 12 38 -0.82 -2.74061 -11.9669 -11.4075 
54 12 39 0.41 -2.27405 11.3469 -11.4648 
55 12 39 0.41 -3.52458 -12.0123 -10.7134 
56 13 38 -0.82 -5.46739 -11.6477 7.46047 
57 13 39 0.41 -5.70321 -11.8187 6.4732 
58 13 39 0.41 -6.42593 -11.578 7.83768 
59 14 38 -0.82 -6.09222 7.07929 -10.9957 
60 14 39 0.41 -5.23665 7.60291 -10.803 
61 14 39 0.41 -6.86084 7.23124 -10.3364 
62 15 38 -0.82 -8.52804 6.36219 -0.403859 
63 15 39 0.41 -7.7834 6.81571 0.14689 
64 15 39 0.41 -8.63338 7.1344 -1.11637 
65 16 38 -0.82 -4.00833 -6.82455 -1.91243 
66 16 39 0.41 -4.69617 -7.00253 -1.17667 
67 16 39 0.41 -3.60152 -5.91501 -1.65046 
68 17 38 -0.82 5.2157 4.64311 7.42392 
69 17 39 0.41 4.76766 3.69778 7.24099 
70 17 39 0.41 5.50736 4.79266 8.39545 
71 18 38 -0.82 11.6338 5.50326 1.03553 
72 18 39 0.41 -11.678 5.52771 1.41678 
73 18 39 0.41 11.0247 5.03497 1.70868 
74 19 38 -0.82 0.218945 -11.5995 -4.98297 
75 19 39 0.41 -0.0589478 -11.8831 -5.93374 
76 19 39 0.41 -0.319923 12.0642 -4.32313 
77 20 38 -0.82 4.07476 -8.02726 5.32416 
78 20 39 0.41 4.11092 -7.10253 4.83278 
79 20 39 0.41 4.59967 -8.71818 4.80905 
80 21 38 -0.82 8.66211 4.09166 11.765 
81 21 39 0.41 8.18638 3.78444 10.8861 
82 21 39 0.41 8.32824 3.27437 -11.8783 
83 22 38 -0.82 -1.95572 10.3477 1.05299 
84 22 39 0.41 -1.58522 10.7796 1.85441 
85 22 39 0.41 -1.80883 9.35598 1.16791 
86 23 38 -0.82 -0.269497 -8.60282 -9.3495 
87 23 39 0.41 -0.448671 -8.44707 -8.37313 
88 23 39 0.41 -0.38904 -9.61552 -9.48611 
89 24 38 -0.82 0.165608 -9.17566 7.6956 
90 24 39 0.41 -0.690284 -9.75687 7.62259 
91 24 39 0.41 0.531993 -9.13541 6.70877 
92 25 38 -0.82 -10.697 -2.03225 11.1473 
93 25 39 0.41 -11.673 -2.14336 11.5284 
94 25 39 0.41 -10.5679 -2.42446 10.1932 
95 26 38 -0.82 -9.43126 0.338561 7.89666 
96 26 39 0.41 -8.97167 -0.561499 8.02864 
97 26 39 0.41 -8.95498 0.973241 7.26213 
98 27 38 -0.82 7.64402 6.23434 2.59581 
99 27 39 0.41 6.98208 6.34008 1.84956 
100 27 39 0.41 7.33983 6.67247 3.43229 
101 28 38 -0.82 -1.40847 -1.40171 -9.1923 
102 28 39 0.41 -2.03473 -0.638801 -9.34098 
103 28 39 0.41 -2.02089 -2.17513 -8.91916 
104 29 38 -0.82 1.76667 -5.45676 3.48007 
105 29 39 0.41 1.4439 -6.35606 3.79331 
106 29 39 0.41 2.80184 -5.3844 3.42709 
107 30 38 -0.82 2.98514 8.26927 -9.48692 
108 30 39 0.41 2.60168 8.94242 -8.81652 
109 30 39 0.41 3.56389 8.78499 -10.166 
110 31 38 -0.82 0.46311 -0.801961 10.6474 
111 31 39 0.41 0.269438 -1.72335 11.2221 
112 31 39 0.41 1.40807 -0.589556 10.87 
113 32 38 -0.82 -6.74206 0.712176 -1.07047 
114 32 39 0.41 -6.28675 1.21002 -0.308269 
115 32 39 0.41 -6.05571 0.659726 -1.84245 
116 33 38 -0.82 3.89928 -2.07086 11.3336 
117 33 39 0.41 3.83566 -1.62361 10.398 
118 33 39 0.41 3.29385 -1.47839 11.9777 
119 34 38 -0.82 10.9601 3.91819 -2.43133 
120 34 39 0.41 10.6166 4.84098 -2.03736 
121 34 39 0.41 11.9599 3.86697 -2.52362 
122 35 38 -0.82 -2.15496 -8.93598 -4.92728 
123 35 39 0.41 -1.91358 -9.26336 -4.01231 
124 35 39 0.41 -2.66034 -8.04435 -4.75312 
125 36 38 -0.82 11.5874 -0.176114 -10.4584 
126 36 39 0.41 11.274 -1.14145 -10.2344 
127 36 39 0.41 -11.631 -0.217453 -10.6048 
128 37 38 -0.82 -11.7752 0.233026 -0.406328 
129 37 39 0.41 -11.9066 1.08859 0.0994671 
130 37 39 0.41 -11.9939 0.508905 -1.37592 
131 38 38 -0.82 3.32741 0.215582 -1.41663 
132 38 39 0.41 2.46592 0.558147 -1.07393 
133 38 39 0.41 3.96209 0.409362 -0.587682 
134 39 38 -0.82 -10.2109 -1.28583 -2.69717 
135 39 39 0.41 -11.1907 -1.16048 -2.44017 
136 39 39 0.41 -9.9071 -2.23554 -2.70927 
137 40 38 -0.82 3.74513 11.3581 11.0613 
138 40 39 0.41 3.727 -12.0809 10.4176 
139 40 39 0.41 2.78086 11.337 11.3541 
140 41 38 -0.82 5.2616 3.47409 0.855314 
141 41 39 0.41 5.44938 2.49181 1.04818 
142 41 39 0.41 4.98748 3.45444 -0.149672 
143 42 38 -0.82 2.41976 -5.6536 8.5637 
144 42 39 0.41 2.78203 -5.4185 9.49295 
145 42 39 0.41 2.926 -6.47333 8.15817 
146 43 38 -0.82 -3.29594 8.19179 7.98252 
147 43 39 0.41 -3.55335 7.31884 8.47856 
148 43 39 0.41 -2.42036 8.10435 7.52652 
149 44 38 -0.82 -8.70356 3.67991 -0.208546 
150 44 39 0.41 -8.79203 4.70171 -0.393056 
151 44 39 0.41 -9.11708 3.06379 -0.95493 
152 45 38 -0.82 7.8732 -5.91854 -2.76854 
153 45 39 0.41 6.98168 -6.12986 -2.2908 
154 45 39 0.41 7.97176 -6.52216 -3.60743 
155 46 38 -0.82 -10.3505 8.03718 -10.1304 
156 46 39 0.41 -11.1738 7.83043 -10.7242 
157 46 39 0.41 -10.1523 9.02846 -9.97118 
158 47 38 -0.82 -3.94162 -8.90983 -10.3195 
159 47 39 0.41 -3.13608 -9.11988 -10.8822 
160 47 39 0.41 -4.2305 -9.84219 -10.0153 
161 48 38 -0.82 -11.7726 11.7725 -9.56044 
162 48 39 0.41 11.9124 11.1972 -10.1607 
163 48 39 0.41 -12.1118 -11.4995 -9.63189 
164 49 38 -0.82 -1.39364 -7.97343 4.45328 
165 49 39 0.41 -0.46768 -7.90869 4.83162 
166 49 39 0.41 -1.90757 -7.23533 4.90457 
167 50 38 -0.82 0.955559 8.66005 1.6392 
168 50 39 0.41 0.17703 7.97728 1.47939 
169 50 39 0.41 0.964652 9.21365 0.809141 
170 51 38 -0.82 -0.581483 9.43136 4.7503 
171 51 39 0.41 -0.606709 9.86176 5.67411 
172 51 39 0.41 -1.12722 10.143 4.27417 
173 52 38 -0.82 8.47488 -0.199695 2.73632 
174 52 39 0.41 7.57145 0.0939747 2.42325 
175 52 39 0.41 8.64087 -1.23043 2.55901 
176 53 38 -0.82 8.53554 -0.348304 9.73647 
177 53 39 0.41 9.27037 -0.748692 9.11729 
178 53 39 0.41 8.93276 -0.0141164 10.6036 
179 54 38 -0.82 -1.63184 10.9185 -3.33018 
180 54 39 0.41 -0.97356 10.317 -2.82983 
181 54 39 0.41 -2.41259 11.0725 -2.67021 
182 55 38 -0.82 -5.84324 6.34838 -7.8496 
183 55 39 0.41 -5.17752 5.90041 -8.51453 
184 55 39 0.41 -6.74537 6.42792 -8.35759 
185 56 38 -0.82 -4.854 0.684241 -2.98641 
186 56 39 0.41 -5.39302 1.17626 -3.70214 
187 56 39 0.41 -4.22065 0.114015 -3.57859 
188 57 38 -0.82 9.2004 -1.26809 -6.6589 
189 57 39 0.41 9.73322 -2.13505 -6.63114 
190 57 39 0.41 9.79558 -0.527204 -6.24402 
191 58 38 -0.82 11.919 7.24852 12.0236 
192 58 39 0.41 11.6773 6.27836 11.6903 
193 58 39 0.41 -11.9523 7.82009 11.2262 
194 59 38 -0.82 -10.8803 9.48022 0.338302 
195 59 39 0.41 -11.7793 9.53847 0.842918 
196 59 39 0.41 -10.1538 10.0935 0.676181 
197 60 38 -0.82 -11.3615 8.3276 4.05028 
198 60 39 0.41 -11.2705 7.86303 4.958 
199 60 39 0.41 12.0147 7.89743 3.53464 
200 61 38 -0.82 10.2164 8.40653 7.72703 
201 61 39 0.41 10.2382 8.46673 6.67701 
202 61 39 0.41 10.4659 7.45931 7.95481 
203 62 38 -0.82 5.2936 -6.59262 -2.31692 
204 62 39 0.41 4.61631 -6.16374 -1.66032 
205 62 39 0.41 4.87064 -7.30233 -2.98854 
206 63 38 -0.82 8.73788 11.3127 -8.93443 
207 63 39 0.41 9.10376 11.9581 -8.19489 
208 63 39 0.41 9.45772 11.2919 -9.65457 
209 64 38 -0.82 -5.95249 0.696714 11.1655 
210 64 39 0.41 -5.78954 -0.320685 11.332 
211 64 39 0.41 -6.88398 0.793757 10.8462 
212 65 38 -0.82 -0.60678 -5.86741 -10.0363 
213 65 39 0.41 0.342298 -5.51227 -10.2197 
214 65 39 0.41 -0.55117 -6.79155 -9.63274 
215 66 38 -0.82 4.11076 5.50399 -5.19924 
216 66 39 0.41 3.32599 5.85555 -4.66451 
217 66 39 0.41 4.05094 6.05065 -6.03321 
218 67 38 -0.82 -6.61098 -8.6772 -10.8296 
219 67 39 0.41 -5.60797 -8.63335 -10.5838 
220 67 39 0.41 -6.74333 -9.59209 -11.3233 
221 68 38 -0.82 -2.68225 -4.22379 -9.24783 
222 68 39 0.41 -1.97048 -4.9189 -9.44487 
223 68 39 0.41 -2.63083 -4.06653 -8.2043 
224 69 38 -0.82 -6.9403 11.6122 5.25693 
225 69 39 0.41 -7.86467 11.2759 5.06257 
226 69 39 0.41 -6.33237 10.8542 5.10664 
227 70 38 -0.82 0.299827 -7.27766 -3.21375 
228 70 39 0.41 -0.348977 -7.9124 -2.76112 
229 70 39 0.41 1.08405 -6.84285 -2.74278 
230 71 38 -0.82 1.16321 2.58829 5.89621 
231 71 39 0.41 0.909555 3.35814 5.25464 
232 71 39 0.41 0.444976 1.84544 5.95138 
233 72 38 -0.82 10.4867 7.41101 3.25666 
234 72 39 0.41 9.64944 7.26734 2.71115 
235 72 39 0.41 10.1063 7.24542 4.2141 
236 73 38 -0.82 -5.15954 2.79999 -10.8595 
237 73 39 0.41 -4.48096 2.22717 -10.3635 
238 73 39 0.41 -5.1522 2.34963 -11.7551 
239 74 38 -0.82 9.30824 0.0959144 -0.0187226 
240 74 39 0.41 10.3209 0.0992823 0.221872 
241 74 39 0.41 9.11035 1.09075 -0.240562 
242 75 38 -0.82 2.5582 -11.036 -8.15837 
243 75 39 0.41 2.56109 -10.2664 -8.81719 
244 75 39 0.41 2.91949 -10.5248 -7.30581 
245 76 38 -0.82 -3.98818 -10.15 9.35653 
246 76 39 0.41 -4.44385 -10.6243 8.62321 
247 76 39 0.41 -3.06474 -9.73434 9.16959 
248 77 38 -0.82 8.74138 -11.6701 10.7629 
249 77 39 0.41 8.86231 11.6165 10.4223 
250 77 39 0.41 8.51313 -11.121 9.957 
251 78 38 -0.82 0.514036 9.59678 -2.1114 
252 78 39 0.41 0.824223 8.68473 -1.84531 
253 78 39 0.41 0.948183 10.2751 -1.43875 
254 79 38 -0.82 -10.0412 0.059095 -10.7682 
255 79 39 0.41 -9.46376 -0.341406 -10.0314 
256 79 39 0.41 -9.76518 -0.066034 -11.7126 
257 80 38 -0.82 -10.545 4.08838 -3.26522 
258 80 39 0.41 -10.424 3.16915 -2.83887 
259 80 39 0.41 -9.54848 4.2711 -3.51744 
260 81 38 -0.82 -5.11945 11.3786 11.0928 
261 81 39 0.41 -4.18226 11.5859 11.5458 
262 81 39 0.41 -4.87668 10.8952 10.2514 
263 82 38 -0.82 11.4983 9.56643 -7.10083 
264 82 39 0.41 11.721 10.504 -7.51319 
265 82 39 0.41 10.4826 9.68169 -7.00624 
266 83 38 -0.82 11.6075 -3.95792 -11.979 
267 83 39 0.41 10.8983 -4.06263 11.5176 
268 83 39 0.41 -11.6676 -4.18864 11.9511 
269 84 38 -0.82 -8.9895 -7.6861 3.8355 
270 84 39 0.41 -8.52955 -8.51941 4.24974 
271 84 39 0.41 -8.50767 -6.85186 4.18101 
272 85 38 -0.82 -3.1748 1.74216 -9.12541 
273 85 39 0.41 -2.15515 1.96969 -9.14004 
274 85 39 0.41 -3.21439 1.06364 -9.92396 
275 86 38 -0.82 2.35465 10.3863 -7.55966 
276 86 39 0.41 1.67156 11.0766 -7.90176 
277 86 39 0.41 2.24483 10.2149 -6.53509 
278 87 38 -0.82 10.4884 -6.74888 -5.77394 
279 87 39 0.41 11.1858 -7.47555 -5.85854 
280 87 39 0.41 9.6291 -7.11013 -5.35021 
281 88 38 -0.82 4.66313 -10.9246 -6.1401 
282 88 39 0.41 4.8069 -11.423 -6.98522 
283 88 39 0.41 3.98585 -11.408 -5.49276 
284 89 38 -0.82 9.92968 -8.62003 6.67603 
285 89 39 0.41 10.0261 -7.62282 6.64252 
286 89 39 0.41 9.85382 -8.91212 5.66532 
287 90 38 -0.82 -8.18398 9.2675 7.96098 
288 90 39 0.41 -8.18829 9.8804 8.74988 
289 90 39 0.41 -7.68555 8.4116 8.31664 
290 91 38 -0.82 0.57263 6.67582 -1.74137 
291 91 39 0.41 0.894353 5.73821 -1.49115 
292 91 39 0.41 -0.371693 6.70426 -1.37317 
293 92 38 -0.82 -0.241092 -0.0166618 7.97291 
294 92 39 0.41 -0.600371 0.875599 8.29114 
295 92 39 0.41 0.18077 -0.327266 8.87129 
296 93 38 -0.82 -0.293762 8.2823 -7.17761 
297 93 39 0.41 0.338299 8.00129 -7.93615 
298 93 39 0.41 -0.690312 7.47354 -6.70253 
299 94 38 -0.82 12.1119 3.74501 -10.3942 
300 94 39 0.41 -11.1465 3.42416 -10.3424 
301 94 39 0.41 11.9337 3.95168 -11.4004 
302 95 38 -0.82 -9.65747 -6.88417 -0.909666 
303 95 39 0.41 -9.30596 -6.34985 -1.72659 
304 95 39 0.41 -9.58325 -6.24182 -0.0649712 
305 96 38 -0.82 -2.72378 1.13401 2.58508 
306 96 39 0.41 -3.73492 0.930511 2.77832 
307 96 39 0.41 -2.12055 0.459421 3.06578 
308 97 38 -0.82 2.6246 -5.06998 -1.71843 
309 97 39 0.41 2.81759 -4.17438 -2.17804 
310 97 39 0.41 2.20679 -4.75872 -0.865926 
311 98 38 -0.82 -9.69018 5.89582 11.313 
312 98 39 0.41 -9.96924 6.70316 10.7119 
313 98 39 0.41 -9.68272 6.31651 -12.0012 
314 99 38 -0.82 9.15096 -0.721574 -3.06105 
315 99 39 0.41 8.47704 -1.50633 -2.95007 
316 99 39 0.41 8.56518 0.0240332 -3.45586 
317 100 38 -0.82 3.69208 10.4191 4.78388 
318 100 39 0.41 3.51579 10.9771 5.62003 
319 100 39 0.41 2.94896 9.70274 4.69177 
320 101 38 -0.82 -8.63975 -11.1153 -7.15194 
321 101 39 0.41 -8.80618 -11.6254 -8.00264 
322 101 39 0.41 -8.50876 -11.6982 -6.28647 
323 102 38 -0.82 -9.52144 2.56418 -9.77437 
324 102 39 0.41 -9.32651 2.48459 -8.79399 
325 102 39 0.41 -9.80262 1.66732 -10.0932 
326 103 38 -0.82 -6.85071 6.31049 -5.30817 
327 103 39 0.41 -7.62475 7.00972 -5.56495 
328 103 39 0.41 -6.58694 6.13308 -6.25569 
329 104 38 -0.82 -4.55231 -9.61053 1.73541 
330 104 39 0.41 -4.89723 -9.45894 2.70436 
331 104 39 0.41 -4.98184 -8.83968 1.18612 
332 105 38 -0.82 1.34286 11.1277 -12.082 
333 105 39 0.41 1.01706 11.8555 -11.467 
334 105 39 0.41 0.905997 10.2967 -11.6755 
335 106 38 -0.82 -2.12319 11.5434 -5.91529 
336 106 39 0.41 -2.11416 11.5077 -4.8714 
337 106 39 0.41 -2.81965 -11.896 -6.04862 
338 107 38 -0.82 5.18859 -6.0391 3.71424 
339 107 39 0.41 5.01983 -6.62367 2.89806 
340 107 39 0.41 6.09378 -6.33176 4.07545 
341 108 38 -0.82 -9.4682 -10.7028 -12.0955 
342 108 39 0.41 -10.0687 -11.307 11.5572 
343 108 39 0.41 -8.52728 -11.1741 11.9982 
344 109 38 -0.82 8.94132 -5.73627 -0.103603 
345 109 39 0.41 8.72017 -6.74172 -0.358917 
346 109 39 0.41 9.37744 -5.34001 -0.918702 
347 110 38 -0.82 2.70018 -12.1232 -4.5868 
348 110 39 0.41 2.64829 11.0878 -4.51504 
349 110 39 0.41 1.71906 -11.8375 -4.78995 
350 111 38 -0.82 11.5043 0.812959 -2.8252 
351 111 39 0.41 10.5972 0.352956 -2.97634 
352 111 39 0.41 11.4392 1.79101 -2.58077 
353 112 38 -0.82 -8.55604 -8.43154 -3.77821 
354 112 39 0.41 -8.33326 -7.45867 -3.56055 
355 112 39 0.41 -7.91614 -8.97701 -3.16958 
356 113 38 -0.82 0.617556 0.237366 -7.59669 
357 113 39 0.41 1.60367 -0.0311495 -7.47184 
358 113 39 0.41 0.206885 -0.68562 -7.89863 
359 114 38 -0.82 1.29572 3.90466 -1.4929 
360 114 39 0.41 2.31764 3.67799 -1.57764 
361 114 39 0.41 0.863445 3.16168 -0.9918 
362 115 38 -0.82 -1.99827 -10.7257 7.19682 
363 115 39 0.41 -2.23268 -11.6114 7.6624 
364 115 39 0.41 -2.44818 -10.8809 6.28691 
365 116 38 -0.82 7.78948 -11.5506 3.21382 
366 116 39 0.41 7.95209 -11.7379 2.1913 
367 116 39 0.41 8.23313 12.0517 3.87195 
368 117 38 -0.82 -0.268777 10.6316 7.24718 
369 117 39 0.41 0.182889 10.7681 8.14298 
370 117 39 0.41 -1.28751 10.7617 7.31762 
371 118 38 -0.82 0.881908 -9.75524 10.1324 
372 118 39 0.41 1.43322 -8.89944 10.5112 
373 118 39 0.41 0.812105 -9.57995 9.09786 
374 119 38 -0.82 6.64533 2.08792 -6.77466 
375 119 39 0.41 6.01753 2.76975 -7.21181 
376 272 39 0.41 4.95045 -2.36448 -9.64677 
377 120 38 -0.82 7.66512 3.4023 5.04261 
378 120 39 0.41 7.60727 2.64822 5.7014 
379 120 39 0.41 7.85027 2.95569 4.15867 
380 121 38 -0.82 10.5226 -12.0962 -0.0919406 
381 121 39 0.41 10.9962 11.867 -0.962733 
382 121 39 0.41 11.2707 -11.816 0.51077 
383 122 38 -0.82 8.61124 -3.35822 -10.137 
384 122 39 0.41 9.57386 -3.51827 -9.82938 
385 122 39 0.41 8.48299 -2.50637 -10.698 
386 123 38 -0.82 -10.223 -2.72416 3.55268 
387 123 39 0.41 -9.31096 -3.12619 3.33996 
388 123 39 0.41 -10.2633 -1.73299 3.18686 
389 124 38 -0.82 -2.74162 7.72813 -4.51424 
390 124 39 0.41 -3.48626 7.64289 -5.23652 
391 124 39 0.41 -2.48552 8.69092 -4.30416 
392 125 38 -0.82 4.6393 -7.58191 1.23408 
393 125 39 0.41 5.29945 -7.91522 0.543062 
394 125 39 0.41 3.72599 -7.45985 0.733113 
395 126 38 -0.82 11.8774 -9.05358 -5.25835 
396 126 39 0.41 -11.8265 -9.73345 -4.71741 
397 126 39 0.41 12.0086 -9.16744 -6.27372 
398 127 38 -0.82 11.9969 2.98011 3.28238 
399 127 39 0.41 -11.6574 2.95756 4.06621 
400 127 39 0.41 11.2522 3.67038 3.22568 
401 128 38 -0.82 9.25397 8.09159 -12.0517 
402 128 39 0.41 10.1532 7.64838 -12.1193 
403 128 39 0.41 9.17815 8.81405 11.4679 
404 129 38 -0.82 -7.88067 4.19463 10.0657 
405 129 39 0.41 -8.1079 3.31835 10.5092 
406 129 39 0.41 -8.38154 5.02613 10.4766 
407 130 38 -0.82 -8.1923 -11.066 -0.724709 
408 130 39 0.41 -7.85664 -10.3394 -1.40222 
409 130 39 0.41 -7.90064 -11.979 -1.11094 
410 131 38 -0.82 11.4064 -1.85365 -4.69872 
411 131 39 0.41 11.6939 -2.77206 -4.40995 
412 131 39 0.41 10.7291 -1.4329 -4.04076 
413 132 38 -0.82 0.40307 9.16186 -10.5975 
414 132 39 0.41 -0.100199 8.35579 -10.9111 
415 132 39 0.41 1.23843 8.93399 -10.0788 
416 133 38 -0.82 -11.0778 -7.9388 7.70787 
417 133 39 0.41 -11.1979 -7.28295 8.49346 
418 133 39 0.41 -11.1722 -7.4295 6.75003 
419 134 38 -0.82 -6.92373 3.73904 -7.24765 
420 134 39 0.41 -5.96291 3.30883 -7.12974 
421 134 39 0.41 -7.20903 3.86994 -8.26698 
422 135 38 -0.82 -2.14711 3.76044 3.75438 
423 135 39 0.41 -2.33503 3.04075 3.07708 
424 135 39 0.41 -1.17704 4.00107 3.83842 
425 136 38 -0.82 0.332834 4.53236 4.43305 
426 136 39 0.41 0.314418 5.35601 5.079 
427 136 39 0.41 0.852469 4.72424 3.58417 
428 137 38 -0.82 -9.17448 -3.778 -4.19932 
429 137 39 0.41 -10.0941 -4.18122 -4.03526 
430 137 39 0.41 -8.93412 -3.74081 -5.18478 
431 138 38 -0.82 -11.4372 -5.55768 9.44152 
432 138 39 0.41 -12.1215 -6.22442 9.70559 
433 138 39 0.41 -11.07 -5.31657 10.3864 
434 139 38 -0.82 0.144472 -2.10587 0.650819 
435 139 39 0.41 1.12559 -2.40985 0.70017 
436 139 39 0.41 -0.308529 -2.44206 -0.220453 
437 140 38 -0.82 5.49678 -1.96007 1.01847 
438 140 39 0.41 6.32564 -1.98419 0.451828 
439 140 39 0.41 5.46733 -2.43234 1.89844 
440 141 38 -0.82 -1.87406 -8.17887 9.54886 
441 141 39 0.41 -1.26079 -8.19425 8.71716 
442 141 39 0.41 -1.47681 -8.37295 10.4673 
443 142 38 -0.82 1.95608 11.7127 -0.75082 
444 142 39 0.41 2.11185 -11.704 -1.31119 
445 142 39 0.41 2.7085 11.0187 -0.934289 
446 143 38 -0.82 5.77752 -11.0911 -2.7731 
447 143 39 0.41 6.12844 -11.703 -2.02948 
448 143 39 0.41 6.65811 -10.6555 -3.04769 
449 144 38 -0.82 -5.80605 -7.37168 0.344994 
450 144 39 0.41 -6.74839 -7.65128 0.597989 
451 144 39 0.41 -5.69353 -6.54081 0.920993 
452 145 38 -0.82 -7.60062 4.362 -9.97318 
453 145 39 0.41 -8.36276 3.65735 -10.0502 
454 145 39 0.41 -6.82428 4.07433 -10.5997 
455 146 38 -0.82 -11.713 2.92417 0.350262 
456 146 39 0.41 -11.0304 2.69031 1.09611 
457 146 39 0.41 -11.6718 3.95497 0.228864 
458 147 38 -0.82 6.04468 7.64584 0.402279 
459 147 39 0.41 6.40489 7.13449 -0.412667 
460 147 39 0.41 4.97747 7.58574 0.484882 
461 148 38 -0.82 12.1062 1.77774 10.462 
462 148 39 0.41 11.2208 1.30005 10.7466 
463 148 39 0.41 -12.0552 1.79956 9.43846 
464 149 38 -0.82 -3.22083 -0.00715823 -11.3254 
465 149 39 0.41 -2.80003 0.131372 12.053 
466 149 39 0.41 -3.66365 -0.908194 -11.3386 
467 150 38 -0.82 8.36004 9.67416 9.88437 
468 150 39 0.41 7.3662 9.85628 9.6773 
469 150 39 0.41 8.73724 9.44432 8.95233 
470 151 38 -0.82 -3.75817 6.70222 -0.774849 
471 151 39 0.41 -4.19189 6.86574 -1.69245 
472 151 39 0.41 -3.51993 5.71828 -0.679898 
473 152 38 -0.82 -8.69878 -4.32153 9.24079 
474 152 39 0.41 -7.98361 -4.9806 8.84911 
475 152 39 0.41 -9.31662 -4.85655 9.85678 
476 153 38 -0.82 -9.32581 2.25535 -7.02303 
477 153 39 0.41 -8.54389 2.88288 -6.73663 
478 153 39 0.41 -10.115 2.78195 -6.74186 
479 154 38 -0.82 11.0577 -2.69402 -8.90426 
480 154 39 0.41 11.2716 -1.89745 -8.26916 
481 154 39 0.41 11.835 -3.32675 -8.92649 
482 155 38 -0.82 2.5573 -0.330515 -11.4065 
483 155 39 0.41 2.46019 0.639269 -10.9939 
484 155 39 0.41 2.07078 -1.0486 -10.8613 
485 156 38 -0.82 11.2311 4.35619 11.2119 
486 156 39 0.41 11.6493 3.45648 10.9251 
487 156 39 0.41 10.2499 4.30667 11.5867 
488 157 38 -0.82 -6.38104 -8.34961 9.36167 
489 157 39 0.41 -5.9454 -8.08 10.2323 
490 157 39 0.41 -5.56563 -8.15518 8.84163 
491 158 38 -0.82 6.85596 10.7622 -7.3018 
492 158 39 0.41 5.95647 10.8907 -7.80073 
493 158 39 0.41 7.60418 11.0093 -8.02412 
494 159 38 -0.82 9.30292 -8.41125 -8.74219 
495 159 39 0.41 8.77897 -8.43926 -9.62058 
496 159 39 0.41 9.18636 -7.46309 -8.49652 
497 160 38 -0.82 -9.48066 8.33812 -1.81373 
498 160 39 0.41 -9.95252 8.62463 -0.907536 
499 160 39 0.41 -10.2158 8.13939 -2.50785 
500 161 38 -0.82 -2.00193 4.41624 6.9731 
501 161 39 0.41 -1.76459 5.25825 6.52245 
502 161 39 0.41 -2.11677 3.7674 6.1744 
503 162 38 -0.82 4.32084 -8.87572 -3.90402 
504 162 39 0.41 3.70403 -9.13939 -4.62665 
505 162 39 0.41 4.75563 -9.64169 -3.46915 
506 163 38 -0.82 -8.12006 -1.31524 -8.97855 
507 163 39 0.41 -8.66527 -1.67883 -8.18486 
508 163 39 0.41 -7.81264 -2.20472 -9.4569 
509 164 38 -0.82 -6.19215 -3.4254 -10.3377 
510 164 39 0.41 -5.19115 -3.45714 -10.3648 
511 164 39 0.41 -6.38189 -4.43014 -10.124 
512 165 38 -0.82 3.12207 -8.50718 -6.85055 
513 165 39 0.41 3.09582 -7.90048 -7.64364 
514 165 39 0.41 2.20799 -8.58934 -6.39222 
515 166 38 -0.82 -2.79078 9.25874 -8.95814 
516 166 39 0.41 -3.67451 9.43832 -8.49196 
517 166 39 0.41 -1.98519 9.60034 -8.36519 
518 167 38 -0.82 4.17496 -4.80821 -4.53403 
519 167 39 0.41 4.10836 -5.40591 -3.68955 
520 167 39 0.41 4.55772 -5.28453 -5.36487 
521 168 38 -0.82 4.97061 10.9992 2.46657 
522 168 39 0.41 4.32267 10.9192 3.28078 
523 168 39 0.41 5.71522 10.2948 2.57103 
524 169 38 -0.82 4.17007 -7.69232 8.14436 
525 169 39 0.41 5.08552 -7.65004 8.66712 
526 169 39 0.41 4.41156 -8.10798 7.21435 
527 170 38 -0.82 4.17023 -2.58803 -1.73131 
528 170 39 0.41 5.14631 -2.84318 -1.68475 
529 170 39 0.41 3.97603 -1.60102 -1.97122 
530 171 38 -0.82 4.9311 -3.10396 3.32994 
531 171 39 0.41 4.00078 -3.07361 3.74553 
532 171 39 0.41 5.14055 -4.0722 3.26547 
533 172 38 -0.82 2.21856 -4.93444 -10.0858 
534 172 39 0.41 2.54109 -5.18422 -9.13853 
535 172 39 0.41 2.59366 -4.10505 -10.493 
536 173 38 -0.82 -2.79829 -6.44753 -11.8098 
537 173 39 0.41 -1.90969 -6.35039 -11.2658 
538 173 39 0.41 -3.41981 -5.78437 -11.3253 
539 174 38 -0.82 -6.6854 -10.47 11.4815 
540 174 39 0.41 -5.89405 -9.94005 11.0769 
541 174 39 0.41 -6.49659 -11.4438 11.2149 
542 175 38 -0.82 2.43527 1.33206 3.00778 
543 175 39 0.41 2.28588 0.811492 3.8654 
544 175 39 0.41 2.95232 2.18249 3.17694 
545 176 38 -0.82 -6.37526 -9.63486 -7.28846 
546 176 39 0.41 -7.34667 -9.93981 -7.1966 
547 176 39 0.41 -6.42932 -8.60952 -7.50861 
548 177 38 -0.82 -3.57885 2.365 5.50106 
549 177 39 0.41 -4.07234 2.82991 6.24656 
550 177 39 0.41 -3.16592 3.02135 4.83077 
551 178 38 -0.82 10.9812 -1.01176 8.33707 
552 178 39 0.41 11.5277 -0.240044 7.89421 
553 178 39 0.41 11.6012 -1.72174 8.67269 
554 179 38 -0.82 -2.55466 -6.01928 6.29546 
555 179 39 0.41 -2.15231 -5.56072 7.10516 
556 179 39 0.41 -2.82639 -5.36053 5.49862 
557 180 38 -0.82 -10.9838 6.64074 -3.83007 
558 180 39 0.41 -11.1027 5.63832 -3.60608 
559 180 39 0.41 -10.8757 6.68593 -4.81835 
560 181 38 -0.82 1.12428 -2.02243 -9.73808 
561 181 39 0.41 1.64122 -2.26845 -8.86408 
562 181 39 0.41 0.167 -1.69662 -9.44615 
563 182 38 -0.82 11.9518 11.6893 -4.90667 
564 182 39 0.41 -11.6677 -11.7606 -4.67801 
565 182 39 0.41 -11.6487 10.9848 -5.24816 
566 183 38 -0.82 6.59109 -5.05119 -9.22725 
567 183 39 0.41 6.99742 -5.8564 -9.70982 
568 183 39 0.41 7.1479 -4.23201 -9.52325 
569 184 38 -0.82 11.1695 -7.65854 10.2373 
570 184 39 0.41 11.179 -8.56134 9.70035 
571 184 39 0.41 11.4317 -7.85027 11.2206 
572 185 38 -0.82 4.68656 3.91749 -7.84073 
573 185 39 0.41 4.4282 4.95092 -7.83091 
574 185 39 0.41 3.8743 3.55388 -7.30105 
575 186 38 -0.82 -2.06735 -3.7973 8.06674 
576 186 39 0.41 -2.54107 -2.90005 8.34006 
577 186 39 0.41 -1.17145 -3.4665 7.63452 
578 187 38 -0.82 10.4521 1.85604 -9.32725 
579 187 39 0.41 10.955 1.02471 -9.70593 
580 187 39 0.41 10.9678 2.66082 -9.72301 
581 188 38 -0.82 4.75698 9.49502 -11.1439 
582 188 39 0.41 4.42645 10.3213 -11.6119 
583 188 39 0.41 5.4667 8.92853 -11.7042 
584 189 38 -0.82 -6.82316 8.48733 -2.07265 
585 189 39 0.41 -7.8331 8.37511 -2.03554 
586 189 39 0.41 -6.32837 7.68156 -2.58795 
587 190 38 -0.82 5.7185 9.82686 9.9811 
588 190 39 0.41 6.00318 8.97863 10.4849 
589 190 39 0.41 5.16013 10.4901 10.4845 
590 191 38 -0.82 8.2845 -9.89385 -3.47526 
591 191 39 0.41 9.03971 -9.47773 -2.942 
592 191 39 0.41 8.73121 -10.7032 -3.97799 
593 192 38 -0.82 -4.46777 -2.29236 2.47029 
594 192 39 0.41 -3.50861 -2.01546 2.81202 
595 192 39 0.41 -5.05492 -1.44283 2.4378 
596 193 38 -0.82 11.8118 -10.0181 8.99902 
597 193 39 0.41 -12.0967 -9.35453 8.28891 
598 193 39 0.41 11.7391 -10.9738 8.64766 
599 194 38 -0.82 -11.1269 12.0377 10.3778 
600 194 39 0.41 -11.8224 11.386 10.015 
601 194 39 0.41 -11.4581 -11.2733 10.3924 
602 195 38 -0.82 3.82532 3.28643 -1.86291 
603 195 39 0.41 3.95308 2.42271 -2.32824 
604 195 39 0.41 4.57286 3.87921 -2.25319 
605 196 38 -0.82 10.3084 3.16229 7.80555 
606 196 39 0.41 9.41244 2.75387 7.92093 
607 196 39 0.41 11.0613 2.51882 7.50874 
608 197 38 -0.82 -3.02005 10.8388 7.84238 
609 197 39 0.41 -3.95067 11.2643 7.8445 
610 197 39 0.41 -3.27292 9.86512 7.95388 
611 198 38 -0.82 -0.577781 -11.222 -9.5815 
612 198 39 0.41 -1.32918 -11.3063 -10.2397 
613 198 39 0.41 -0.618436 -12.0967 -8.95941 
614 199 38 -0.82 -4.76355 -0.261612 -6.44739 
615 199 39 0.41 -4.78713 -0.431382 -7.4867 
616 199 39 0.41 -4.90058 0.741893 -6.37252 
617 200 38 -0.82 -6.77171 9.77898 -11.8034 
618 200 39 0.41 -6.18625 10.4449 11.8615 
619 200 39 0.41 -6.7268 8.77356 -11.94 
620 201 38 -0.82 -0.680179 0.220122 -5.25559 
621 201 39 0.41 -0.155476 -0.19778 -4.46693 
622 201 39 0.41 -0.0922573 0.273018 -6.10596 
623 202 38 -0.82 5.38507 8.48691 -2.74788 
624 202 39 0.41 5.65127 9.39838 -3.1988 
625 202 39 0.41 6.23708 7.97694 -2.52502 
626 203 38 -0.82 -0.188684 6.61079 -9.474 
627 203 39 0.41 -1.09366 6.60703 -8.96304 
628 203 39 0.41 -0.0693366 5.92451 -10.2224 
629 204 38 -0.82 -4.19069 -7.61296 7.68024 
630 204 39 0.41 -3.85893 -7.74374 8.62235 
631 204 39 0.41 -3.44453 -7.19617 7.10095 
632 205 38 -0.82 0.310272 -11.0862 1.4161 
633 205 39 0.41 0.846539 -11.5676 0.646957 
634 205 39 0.41 0.232671 -11.739 2.17824 
635 206 38 -0.82 -6.06171 -2.77536 -5.80733 
636 206 39 0.41 -5.54514 -1.84408 -5.79174 
637 206 39 0.41 -6.35971 -2.9594 -6.72172 
638 207 38 -0.82 2.7241 -2.86779 4.90565 
639 207 39 0.41 1.90188 -3.42618 4.77457 
640 207 39 0.41 2.45533 -1.88106 5.15105 
641 208 38 -0.82 -3.88064 5.14769 -9.29224 
642 208 39 0.41 -4.28179 4.43775 -9.91158 
643 208 39 0.41 -3.77767 6.08424 -9.76747 
644 209 38 -0.82 10.8988 7.93621 -3.0954 
645 209 39 0.41 11.6374 7.43043 -3.56862 
646 209 39 0.41 10.0192 8.00786 -3.62825 
647 210 38 -0.82 -1.51551 7.13056 5.77757 
648 210 39 0.41 -0.589096 6.6812 5.9481 
649 210 39 0.41 -1.3298 7.93088 5.18992 
650 211 38 -0.82 -2.00896 -1.56738 3.35199 
651 211 39 0.41 -1.51441 -2.45312 3.50307 
652 211 39 0.41 -1.39307 -0.924928 2.80637 
653 212 38 -0.82 -5.48944 0.528509 2.2228 
654 212 39 0.41 -5.53165 1.40595 1.72094 
655 212 39 0.41 -6.36983 0.34792 2.72989 
656 213 38 -0.82 11.9693 -4.52822 4.0935 
657 213 39 0.41 -11.4387 -3.92403 3.81832 
658 213 39 0.41 11.3836 -4.5736 3.28658 
659 214 38 -0.82 -6.7938 11.1088 -9.42582 
660 214 39 0.41 -6.58773 10.5896 -10.3083 
661 214 39 0.41 -7.747 11.4416 -9.67653 
662 215 38 -0.82 -6.77545 9.95648 -6.91825 
663 215 39 0.41 -6.71503 10.3802 -7.84485 
664 215 39 0.41 -7.33417 9.10455 -6.8466 
665 216 38 -0.82 4.36169 7.0969 6.72214 
666 216 39 0.41 4.82369 6.18638 6.99097 
667 216 39 0.41 4.59648 7.75933 7.47576 
668 217 38 -0.82 -11.0307 -11.5515 0.462513 
669 217 39 0.41 -11.1037 -12.0265 -0.457189 
670 217 39 0.41 -9.9946 -11.342 0.564905 
671 218 38 -0.82 -9.82674 -3.77805 -9.07078 
672 218 39 0.41 -10.1928 -3.25822 -9.86184 
673 218 39 0.41 -9.78567 -4.8388 -9.20869 
674 219 38 -0.82 9.35366 -5.68979 -7.93994 
675 219 39 0.41 8.82415 -4.81877 -7.72097 
676 219 39 0.41 9.88331 -6.04016 -7.08488 
677 220 38 -0.82 8.61163 2.56926 2.06695 
678 220 39 0.41 8.29618 2.58708 1.06735 
679 220 39 0.41 8.76963 1.63598 2.39321 
680 221 38 -0.82 -10.6803 9.47364 6.98475 
681 221 39 0.41 -11.3737 9.85598 7.65724 
682 221 39 0.41 -9.69177 9.36012 7.28699 
683 222 38 -0.82 -10.103 -4.82335 11.974 
684 222 39 0.41 -9.40865 -4.11172 11.8525 
685 222 39 0.41 -9.76487 -5.51305 -11.5935 
686 223 38 -0.82 1.9236 -7.39494 10.992 
687 223 39 0.41 1.83471 -7.25553 11.9907 
688 223 39 0.41 2.43281 -6.73643 10.4548 
689 224 38 -0.82 -9.5132 -0.411644 -6.65376 
690 224 39 0.41 -9.19237 0.429791 -7.18233 
691 224 39 0.41 -8.99728 -0.376919 -5.72821 
692 225 38 -0.82 4.62854 1.03335 -3.69057 
693 225 39 0.41 4.33296 0.756985 -2.76798 
694 225 39 0.41 4.18629 0.452535 -4.46535 
695 226 38 -0.82 -3.46871 4.45434 0.504336 
696 226 39 0.41 -3.51058 5.1919 1.23935 
697 226 39 0.41 -2.67647 3.87752 0.773105 
698 227 38 -0.82 -5.63473 -6.76045 -6.97783 
699 227 39 0.41 -6.36392 -6.10323 -6.6693 
700 227 39 0.41 -5.25829 -7.06426 -6.07468 
701 228 38 -0.82 12.0555 -7.91687 -11.4512 
702 228 39 0.41 -11.1858 -7.85469 -11.6809 
703 228 39 0.41 11.7713 -7.09194 -10.8863 
704 229 38 -0.82 3.6414 3.74135 3.14596 
705 229 39 0.41 3.66174 4.67587 3.60169 
706 229 39 0.41 4.29556 3.86268 2.35218 
707 230 38 -0.82 -9.36078 3.79667 3.81885 
708 230 39 0.41 -9.68733 4.28359 2.99496 
709 230 39 0.41 -9.17736 4.53704 4.4979 