ITEM: TIMESTEP
493000
ITEM: NUMBER OF ATOMS
1429
ITEM: BOX BOUNDS pp pp pp
-12.1247 12.1247
-12.1247 12.1247
-12.1247 12.1247
ITEM: ATOMS id mol type q x y z 
1 1 9 0.51 -3.50161 11.391 -3.88827 
2 1 16 -0.51 -2.49777 12.1021 -3.76051 
3 1 15 -0.47 -3.9233 10.9506 -5.10367 
4 1 5 0.31 -4.75849 10.4765 -5.17822 
5 1 13 -0.11 -3.27356 11.1339 -6.33068 
6 1 8 0.09 -2.64392 10.1827 -6.55315 
7 1 8 0.09 -4.03544 11.1785 -7.1506 
8 1 8 0.09 -2.64737 12.0668 -6.3959 
9 1 13 -0.27 -3.34627 7.40498 -1.59964 
10 1 8 0.09 -3.18288 7.82365 -0.513436 
11 1 8 0.09 -2.36626 7.26251 -2.15084 
12 1 8 0.09 -3.85278 6.42354 -1.64678 
13 1 9 0.51 -3.99973 8.50436 -2.31785 
14 1 16 -0.51 -4.66372 8.27869 -3.34525 
15 1 15 -0.47 -3.6515 9.77663 -1.94897 
16 1 5 0.31 -3.11394 9.96745 -1.14226 
17 1 10 0.07 -4.21164 10.9342 -2.61723 
18 1 6 0.09 -5.24633 10.6445 -2.93377 
19 1 12 -0.18 -4.24681 -12.0655 -1.67605 
20 1 7 0.09 -4.87583 11.9637 -0.807831 
21 1 7 0.09 -3.23065 -11.9613 -1.32325 
22 1 11 -0.21 -4.54446 -10.6784 -2.43701 
23 1 7 0.09 -5.24906 -11.501 -2.57774 
24 1 7 0.09 -4.50391 -10.4237 -1.36205 
25 1 20 0.75 -5.17379 -9.41348 -3.0935 
26 1 18 -0.55 -5.06064 -8.25851 -2.67965 
27 1 19 -0.61 -5.69921 -9.59972 -4.45551 
28 2 2 -0.82 -10.6476 -10.742 -10.5777 
29 2 1 0.41 -10.8095 -9.90202 -10.0297 
30 2 1 0.41 -11.028 -11.4907 -9.97015 
31 444 1 0.41 -3.03279 -0.0851106 3.50544 
32 3 2 -0.82 2.54308 -3.01952 -9.11892 
33 3 1 0.41 1.72182 -2.91293 -8.50043 
34 3 1 0.41 3.36112 -2.66997 -8.60905 
35 4 2 -0.82 6.53212 -0.628167 3.96086 
36 4 1 0.41 6.90174 -1.57276 3.98387 
37 4 1 0.41 7.32079 -0.0450322 4.28927 
38 5 2 -0.82 10.0636 6.65303 -0.372156 
39 5 1 0.41 9.78819 5.67908 -0.153214 
40 5 1 0.41 9.83911 7.32285 0.443035 
41 6 2 -0.82 -5.96507 -7.24308 4.59619 
42 6 1 0.41 -6.41272 -7.86834 5.23774 
43 6 1 0.41 -4.99589 -7.06143 4.80175 
44 7 2 -0.82 3.18719 4.41899 9.2495 
45 7 1 0.41 3.4768 4.0276 10.1541 
46 7 1 0.41 3.93251 4.22674 8.54111 
47 8 2 -0.82 0.0838271 -10.6861 -8.71821 
48 8 1 0.41 0.104703 -10.1034 -9.55788 
49 8 1 0.41 0.0906014 -9.92948 -8.07473 
50 9 2 -0.82 8.95976 -6.17045 10.2582 
51 9 1 0.41 8.50114 -7.04817 10.5839 
52 9 1 0.41 9.78924 -6.24625 10.8724 
53 10 2 -0.82 -2.88786 6.19434 -10.7526 
54 10 1 0.41 -2.74841 6.35279 -11.7365 
55 10 1 0.41 -2.04495 6.5207 -10.2979 
56 11 2 -0.82 9.51356 8.10507 1.91578 
57 11 1 0.41 10.3417 8.02568 2.45018 
58 11 1 0.41 9.06051 9.01524 2.08852 
59 12 2 -0.82 -9.64781 -7.90446 9.95874 
60 12 1 0.41 -10.5793 -8.32014 9.74955 
61 12 1 0.41 -9.72676 -6.95912 9.66061 
62 13 2 -0.82 5.31953 -10.1245 1.76145 
63 13 1 0.41 4.4529 -10.5336 2.11555 
64 13 1 0.41 5.5848 -10.5087 0.808524 
65 14 2 -0.82 11.35 3.6803 2.90006 
66 14 1 0.41 10.6714 4.36131 2.75005 
67 14 1 0.41 12.0176 3.6114 2.11267 
68 15 2 -0.82 11.3426 6.57487 -11.8835 
69 15 1 0.41 10.7698 6.79606 11.5505 
70 15 1 0.41 10.6777 6.07751 -11.2684 
71 16 2 -0.82 -4.54311 7.97711 -6.07782 
72 16 1 0.41 -4.56103 8.26128 -5.04765 
73 16 1 0.41 -5.12376 7.10262 -6.09652 
74 17 2 -0.82 -1.69701 7.99575 -5.69078 
75 17 1 0.41 -2.70474 7.84755 -5.84631 
76 17 1 0.41 -1.26212 7.39601 -6.35814 
77 18 2 -0.82 -5.48421 -8.77521 0.13577 
78 18 1 0.41 -5.86613 -8.25383 1.01634 
79 18 1 0.41 -6.023 -8.4972 -0.689139 
80 19 2 -0.82 -3.29115 -11.0006 -9.09145 
81 19 1 0.41 -2.37539 -10.6228 -9.17299 
82 19 1 0.41 -3.15518 -12.0353 -9.17241 
83 20 2 -0.82 11.602 8.1011 -5.96102 
84 20 1 0.41 10.6397 7.92196 -5.56113 
85 20 1 0.41 11.3065 8.46677 -6.87069 
86 21 2 -0.82 9.63108 -4.71259 4.49741 
87 21 1 0.41 9.71506 -5.64172 5.01276 
88 21 1 0.41 9.9002 -4.84282 3.50324 
89 22 2 -0.82 2.49179 9.41619 9.53404 
90 22 1 0.41 1.59606 9.8354 9.10013 
91 22 1 0.41 3.15606 9.11345 8.851 
92 23 2 -0.82 8.7733 12.045 -1.98257 
93 23 1 0.41 8.35923 11.7506 -2.89391 
94 23 1 0.41 9.66479 11.5859 -1.79676 
95 24 2 -0.82 -10.4529 6.63485 2.03945 
96 24 1 0.41 -9.86885 6.25461 2.77237 
97 24 1 0.41 -10.3958 6.11463 1.16099 
98 25 2 -0.82 -4.84273 9.43739 4.88036 
99 25 1 0.41 -4.05113 9.16566 4.30709 
100 25 1 0.41 -4.89153 10.4755 4.94188 
101 26 2 -0.82 0.649643 9.72636 -6.34805 
102 26 1 0.41 1.08663 10.3475 -5.62711 
103 26 1 0.41 -0.275921 9.48108 -6.03371 
104 27 2 -0.82 0.168069 10.9433 -3.73271 
105 27 1 0.41 -0.620283 11.5584 -3.43424 
106 27 1 0.41 0.829356 11.6021 -4.23722 
107 28 2 -0.82 7.96992 9.83154 5.18282 
108 28 1 0.41 7.64756 9.86172 4.19747 
109 28 1 0.41 7.95181 8.82047 5.56949 
110 29 2 -0.82 9.30111 -7.61175 2.65337 
111 29 1 0.41 8.87232 -6.88257 2.14125 
112 29 1 0.41 9.80271 -8.28022 2.03823 
113 30 2 -0.82 2.1571 -10.7905 11.8426 
114 30 1 0.41 2.099 -10.0456 11.2256 
115 30 1 0.41 2.34492 -11.659 11.3254 
116 31 2 -0.82 2.88914 6.49828 2.64893 
117 31 1 0.41 3.71294 6.05496 3.11066 
118 31 1 0.41 2.21794 6.64977 3.42677 
119 32 2 -0.82 10.3379 -4.37246 1.99483 
120 32 1 0.41 9.46498 -4.75656 1.6316 
121 32 1 0.41 10.3235 -3.33437 1.97331 
122 33 2 -0.82 -6.65661 -10.9757 3.02631 
123 33 1 0.41 -7.5275 -11.6016 3.07584 
124 33 1 0.41 -6.84028 -9.97066 2.83258 
125 34 2 -0.82 -5.62692 2.66034 -5.49961 
126 34 1 0.41 -6.5922 2.26878 -5.24927 
127 34 1 0.41 -5.68381 3.62855 -5.79488 
128 35 2 -0.82 -8.8185 2.22194 5.33271 
129 35 1 0.41 -8.61114 2.9792 6.00803 
130 35 1 0.41 -8.73178 2.60243 4.36424 
131 36 2 -0.82 0.244611 9.28626 5.78489 
132 36 1 0.41 0.19638 8.60066 5.10881 
133 36 1 0.41 0.148181 8.8733 6.7563 
134 37 2 -0.82 10.1722 -8.21262 -9.58784 
135 37 1 0.41 11.0463 -8.6893 -9.50564 
136 37 1 0.41 9.6657 -8.08521 -8.76309 
137 38 2 -0.82 1.54871 4.36753 1.20797 
138 38 1 0.41 1.59757 4.13859 0.171098 
139 38 1 0.41 2.08407 5.23455 1.37074 
140 39 2 -0.82 3.21445 -11.6607 2.5149 
141 39 1 0.41 2.43911 -11.0744 2.88045 
142 39 1 0.41 2.77477 12.0905 1.71347 
143 40 2 -0.82 4.78801 7.31047 -7.85901 
144 40 1 0.41 5.00067 7.13604 -6.90775 
145 40 1 0.41 3.8487 7.68566 -7.85778 
146 41 2 -0.82 -3.6147 -1.90616 4.17653 
147 41 1 0.41 -3.42694 -2.4167 5.04515 
148 41 1 0.41 -4.62613 -1.85307 4.23507 
149 42 2 -0.82 -5.23718 -12.085 5.3828 
150 42 1 0.41 -4.64823 -11.3741 5.78842 
151 42 1 0.41 -5.66106 -11.5931 4.58147 
152 43 2 -0.82 -9.61972 10.4921 -7.59547 
153 43 1 0.41 -9.11794 10.7164 -8.43842 
154 43 1 0.41 -8.80069 10.166 -7.07349 
155 44 2 -0.82 -1.49919 -11.8651 6.48973 
156 44 1 0.41 -1.832 -11.2863 7.23203 
157 44 1 0.41 -0.524499 -11.5848 6.29671 
158 45 2 -0.82 -8.87193 -3.72966 -7.01634 
159 45 1 0.41 -8.69985 -4.74618 -7.12341 
160 45 1 0.41 -9.88011 -3.57876 -6.71292 
161 46 2 -0.82 7.53535 3.78327 11.0463 
162 46 1 0.41 8.50701 4.0757 10.8271 
163 46 1 0.41 7.41448 4.0589 11.9971 
164 47 2 -0.82 9.66387 4.21282 -4.44967 
165 47 1 0.41 10.4063 4.90484 -4.29447 
166 47 1 0.41 9.8328 3.90837 -5.43995 
167 48 2 -0.82 -4.59986 2.28975 -0.378667 
168 48 1 0.41 -4.68768 2.59665 -1.42166 
169 48 1 0.41 -4.65264 3.05847 0.296097 
170 49 2 -0.82 -11.4453 -3.48919 -6.58191 
171 49 1 0.41 -11.8542 -3.15879 -5.68195 
172 49 1 0.41 -12.0648 -4.21332 -6.98675 
173 50 2 -0.82 6.1839 -8.33588 -9.69562 
174 50 1 0.41 6.00193 -9.34638 -9.89249 
175 50 1 0.41 5.89016 -8.21403 -8.67624 
176 51 2 -0.82 -1.96672 -6.07958 -4.37663 
177 51 1 0.41 -1.72155 -6.99904 -4.75157 
178 51 1 0.41 -2.48576 -6.08189 -3.41536 
179 52 2 -0.82 -7.40149 -11.0962 -5.84925 
180 52 1 0.41 -8.0599 -11.5931 -5.21337 
181 52 1 0.41 -6.65536 -10.6441 -5.22564 
182 53 2 -0.82 7.13715 11.2585 10.0272 
183 53 1 0.41 7.11508 11.6083 11.0052 
184 53 1 0.41 6.42438 11.6714 9.36078 
185 54 2 -0.82 7.00946 0.508801 1.06358 
186 54 1 0.41 6.20893 0.0920745 0.572878 
187 54 1 0.41 7.02007 0.0396776 1.95562 
188 55 2 -0.82 -3.03246 4.33127 3.07456 
189 55 1 0.41 -3.10389 3.61806 3.75233 
190 55 1 0.41 -3.75576 4.27223 2.381 
191 56 2 -0.82 -7.94396 -0.0846849 -2.10829 
192 56 1 0.41 -8.92745 -0.21726 -2.32196 
193 56 1 0.41 -7.24198 -0.00771038 -2.85663 
194 57 2 -0.82 -1.7887 -0.130808 11.0967 
195 57 1 0.41 -2.71696 -0.164476 10.6384 
196 57 1 0.41 -1.11943 0.475191 10.501 
197 58 2 -0.82 8.80958 0.563012 4.54114 
198 58 1 0.41 9.06691 0.937899 3.6172 
199 58 1 0.41 9.27552 -0.332694 4.70636 
200 59 2 -0.82 11.486 -10.9936 -6.86578 
201 59 1 0.41 11.6 -9.98286 -6.68048 
202 59 1 0.41 12.086 -11.5433 -6.23261 
203 60 2 -0.82 -6.86917 -8.41374 2.41634 
204 60 1 0.41 -6.43778 -7.95872 3.2452 
205 60 1 0.41 -7.79461 -7.88981 2.34402 
206 61 2 -0.82 3.75252 -6.19738 -6.57234 
207 61 1 0.41 3.23127 -6.33858 -7.45636 
208 61 1 0.41 3.07424 -5.85974 -5.89809 
209 62 2 -0.82 -4.44392 -0.185437 0.685814 
210 62 1 0.41 -4.38766 0.765964 0.382533 
211 62 1 0.41 -3.75058 -0.128343 1.45156 
212 63 2 -0.82 -7.10019 -2.4632 -0.66394 
213 63 1 0.41 -7.43862 -2.03188 0.218297 
214 63 1 0.41 -6.94821 -1.72055 -1.38113 
215 64 2 -0.82 5.04738 -4.30192 -9.60188 
216 64 1 0.41 4.60361 -3.47866 -10.0222 
217 64 1 0.41 4.37474 -5.07282 -9.45695 
218 65 2 -0.82 -0.410095 7.20472 -9.80671 
219 65 1 0.41 0.400993 6.67371 -10.166 
220 65 1 0.41 -0.455662 8.19093 -10.1724 
221 66 2 -0.82 -8.8233 12.0109 2.84598 
222 66 1 0.41 -9.03525 12.0796 3.85433 
223 66 1 0.41 -9.21489 11.0808 2.69498 
224 67 2 -0.82 -0.254591 6.50078 -3.51242 
225 67 1 0.41 0.521736 7.13422 -3.17781 
226 67 1 0.41 -0.624322 7.05322 -4.27299 
227 68 2 -0.82 8.48527 -1.54514 -4.99988 
228 68 1 0.41 7.77457 -1.16969 -4.39727 
229 68 1 0.41 9.1563 -0.764973 -4.95649 
230 69 2 -0.82 -9.84597 8.14555 -5.35494 
231 69 1 0.41 -10.765 7.91276 -5.68179 
232 69 1 0.41 -9.69853 8.05325 -4.33042 
233 70 2 -0.82 -1.20839 4.65053 0.680462 
234 70 1 0.41 -0.222198 4.45766 0.89343 
235 70 1 0.41 -1.7689 4.26395 1.44381 
236 71 2 -0.82 -1.63284 -9.9731 -2.12953 
237 71 1 0.41 -2.14864 -9.21482 -1.65512 
238 71 1 0.41 -0.778751 -9.85361 -1.62854 
239 72 2 -0.82 2.60824 -0.214433 1.15334 
240 72 1 0.41 1.58752 -0.0371822 1.34322 
241 72 1 0.41 2.7908 -1.10583 0.621941 
242 73 2 -0.82 -7.71875 9.5619 -5.98401 
243 73 1 0.41 -7.27693 8.91753 -6.65414 
244 73 1 0.41 -8.47655 8.98449 -5.59112 
245 74 2 -0.82 -6.4532 -2.17268 3.94567 
246 74 1 0.41 -6.28381 -2.10173 4.98482 
247 74 1 0.41 -6.39853 -3.19077 3.82163 
248 75 2 -0.82 9.42039 9.77501 11.5202 
249 75 1 0.41 9.64036 10.5395 10.956 
250 75 1 0.41 9.52914 10.0542 -11.7578 
251 76 2 -0.82 11.9793 8.18713 -1.59036 
252 76 1 0.41 11.2333 7.52514 -1.28224 
253 76 1 0.41 11.6659 9.18653 -1.60919 
254 77 2 -0.82 -2.54131 4.95213 -4.65314 
255 77 1 0.41 -2.04749 5.77902 -4.39572 
256 77 1 0.41 -3.09395 4.42075 -3.91403 
257 78 2 -0.82 -11.9875 4.05543 6.37916 
258 78 1 0.41 -11.0798 4.53678 6.06328 
259 78 1 0.41 12.0922 4.60199 7.2234 
260 79 2 -0.82 5.16663 -10.7662 -10.2887 
261 79 1 0.41 4.18627 -10.6123 -9.96412 
262 79 1 0.41 5.28246 -11.7831 -10.5393 
263 80 2 -0.82 -10.2754 -6.16486 0.0553973 
264 80 1 0.41 -9.44762 -5.88007 -0.48893 
265 80 1 0.41 -10.559 -5.38024 0.645434 
266 81 2 -0.82 -1.25793 -8.0515 11.5875 
267 81 1 0.41 -0.628343 -8.77398 11.9363 
268 81 1 0.41 -2.17422 -8.37812 11.2744 
269 82 2 -0.82 10.1744 4.15967 9.88622 
270 82 1 0.41 11.0483 4.45126 9.38591 
271 82 1 0.41 10.4815 3.32734 10.4407 
272 83 2 -0.82 12.0821 -6.2861 -4.63015 
273 83 1 0.41 11.1363 -5.93852 -4.72253 
274 83 1 0.41 -11.7191 -5.47937 -4.327 
275 84 2 -0.82 -1.28743 -8.57012 -5.51701 
276 84 1 0.41 -0.719805 -9.25978 -4.98317 
277 84 1 0.41 -2.15741 -9.12952 -5.84294 
278 85 2 -0.82 0.722975 -9.06045 -0.900482 
279 85 1 0.41 1.19807 -9.28974 -1.80073 
280 85 1 0.41 1.24511 -8.22098 -0.581378 
281 86 2 -0.82 0.927196 -10.8152 7.49192 
282 86 1 0.41 1.95829 -10.7432 7.57571 
283 86 1 0.41 0.528236 -9.9495 7.8463 
284 87 2 -0.82 -8.78622 3.43463 9.65675 
285 87 1 0.41 -8.1299 3.71414 8.93647 
286 87 1 0.41 -9.35866 2.73904 9.20027 
287 88 2 -0.82 0.558743 11.1135 8.69063 
288 88 1 0.41 -0.442193 10.9393 8.53717 
289 88 1 0.41 0.72311 12.0491 8.22884 
290 89 2 -0.82 -10.5351 -3.73872 8.7424 
291 89 1 0.41 -10.8274 -4.6836 8.57534 
292 89 1 0.41 -11.3294 -3.09571 8.88378 
293 90 2 -0.82 -5.59409 -8.40614 -11.4558 
294 90 1 0.41 -5.04143 -7.55241 -11.5898 
295 90 1 0.41 -6.49167 -8.15696 -11.9906 
296 91 2 -0.82 -1.4433 -2.9776 7.66635 
297 91 1 0.41 -1.79286 -3.37698 8.50674 
298 91 1 0.41 -1.76225 -3.62099 6.96587 
299 92 2 -0.82 4.42028 10.9951 6.38292 
300 92 1 0.41 4.38124 10.7204 5.37887 
301 92 1 0.41 3.92943 10.2422 6.94868 
302 93 2 -0.82 11.2898 10.9469 -1.64573 
303 93 1 0.41 11.3417 10.6466 -2.67791 
304 93 1 0.41 11.9651 11.7512 -1.58682 
305 94 2 -0.82 -7.31362 11.5187 7.05112 
306 94 1 0.41 -8.22767 11.5665 6.64045 
307 94 1 0.41 -6.66031 12.0542 6.50058 
308 95 2 -0.82 -2.93364 -4.57163 -7.57453 
309 95 1 0.41 -2.51205 -5.32609 -8.14099 
310 95 1 0.41 -3.90759 -4.45512 -7.96085 
311 96 2 -0.82 -7.42691 8.12896 4.50013 
312 96 1 0.41 -6.68337 8.78369 4.6409 
313 96 1 0.41 -8.15572 8.38418 5.19302 
314 97 2 -0.82 1.14474 -0.832581 -2.22764 
315 97 1 0.41 0.486292 -0.0763463 -2.53577 
316 97 1 0.41 1.80815 -0.403078 -1.57823 
317 98 2 -0.82 0.348895 -2.81759 -7.64308 
318 98 1 0.41 0.466394 -2.40417 -6.67179 
319 98 1 0.41 -0.473417 -2.57223 -8.23457 
320 99 2 -0.82 12.1228 -9.30983 -3.49016 
321 99 1 0.41 -12.0252 -8.65998 -2.66274 
322 99 1 0.41 11.9605 -8.76008 -4.40955 
323 100 2 -0.82 -9.07087 -7.23796 2.24354 
324 100 1 0.41 -9.41675 -6.74728 3.07095 
325 100 1 0.41 -9.4606 -6.83426 1.37017 
326 101 2 -0.82 -11.851 5.14529 8.88579 
327 101 1 0.41 -11.7744 6.1115 9.21153 
328 101 1 0.41 -10.92 4.7136 8.96153 
329 102 2 -0.82 5.91361 -9.13404 6.63974 
330 102 1 0.41 6.38542 -8.743 7.43092 
331 102 1 0.41 6.56126 -9.20948 5.86236 
332 103 2 -0.82 7.53071 7.47546 6.39894 
333 103 1 0.41 6.67593 6.89106 6.2473 
334 103 1 0.41 8.22296 6.85103 6.85012 
335 104 2 -0.82 8.96978 -7.78393 -6.75203 
336 104 1 0.41 8.65729 -6.86451 -6.36743 
337 104 1 0.41 8.07173 -8.20547 -6.85524 
338 105 2 -0.82 -9.5278 -3.01553 6.3358 
339 105 1 0.41 -10.0626 -3.15956 7.19164 
340 105 1 0.41 -9.16055 -2.07339 6.46914 
341 106 2 -0.82 -2.23671 6.51696 7.83367 
342 106 1 0.41 -2.39835 6.77271 6.89345 
343 106 1 0.41 -2.41684 5.49269 7.94257 
344 107 2 -0.82 3.24783 11.3866 -7.75847 
345 107 1 0.41 2.79989 -11.9498 -7.88779 
346 107 1 0.41 2.82051 10.682 -8.36456 
347 108 2 -0.82 1.81551 6.56433 10.595 
348 108 1 0.41 2.18426 7.51367 10.5841 
349 108 1 0.41 2.32164 6.00063 9.87166 
350 109 2 -0.82 6.20772 8.46266 -2.00655 
351 109 1 0.41 7.14689 7.9713 -2.09789 
352 109 1 0.41 5.50962 7.74944 -1.75739 
353 110 2 -0.82 6.77175 8.63922 9.3256 
354 110 1 0.41 6.81009 9.58432 9.74623 
355 110 1 0.41 7.55422 8.61309 8.64223 
356 111 2 -0.82 4.01708 11.4033 10.0356 
357 111 1 0.41 3.61807 -12.081 9.50328 
358 111 1 0.41 3.60303 10.4732 9.79337 
359 112 2 -0.82 -9.28485 -5.49217 4.99248 
360 112 1 0.41 -9.2673 -4.56347 5.46823 
361 112 1 0.41 -10.238 -5.79105 5.01712 
362 113 2 -0.82 -0.953846 -2.05245 2.83482 
363 113 1 0.41 -1.95857 -2.16227 2.94189 
364 113 1 0.41 -0.829482 -2.04089 1.80878 
365 114 2 -0.82 4.80793 2.9999 7.54675 
366 114 1 0.41 5.70869 2.45791 7.4732 
367 114 1 0.41 4.14307 2.38197 7.01404 
368 115 2 -0.82 2.91106 6.48845 -4.50133 
369 115 1 0.41 2.52382 5.56734 -4.46043 
370 115 1 0.41 2.27399 7.25986 -4.29372 
371 116 2 -0.82 -3.25689 9.13141 10.4436 
372 116 1 0.41 -4.10827 9.50171 10.9036 
373 116 1 0.41 -2.87075 9.84336 9.80582 
374 117 2 -0.82 11.0877 7.67545 8.43348 
375 117 1 0.41 10.6171 7.58099 9.38255 
376 117 1 0.41 10.7464 6.83091 7.86761 
377 118 2 -0.82 -8.40033 -9.97085 8.72265 
378 118 1 0.41 -8.7836 -10.6653 9.30945 
379 118 1 0.41 -8.83314 -9.13852 9.08412 
380 119 2 -0.82 -12.1008 -8.992 9.05598 
381 119 1 0.41 11.3264 -9.30746 8.53256 
382 119 1 0.41 -12.0354 -9.50456 9.93966 
383 120 2 -0.82 -10.3317 4.79374 -3.23196 
384 120 1 0.41 -11.1126 5.40706 -3.51703 
385 120 1 0.41 -9.55724 5.34325 -2.85113 
386 121 2 -0.82 6.64356 -0.61833 -2.77667 
387 121 1 0.41 6.26247 -1.5005 -3.15201 
388 121 1 0.41 6.77404 -0.741942 -1.771 
389 122 2 -0.82 7.44516 -4.88767 -10.8252 
390 122 1 0.41 6.69709 -4.73208 -10.1041 
391 122 1 0.41 7.17616 -4.35245 -11.6366 
392 123 2 -0.82 -4.26244 10.903 -11.8094 
393 123 1 0.41 -4.91709 10.1357 -11.668 
394 123 1 0.41 -3.71879 10.8457 -10.9132 
395 124 2 -0.82 -5.73058 -4.97764 -3.19087 
396 124 1 0.41 -6.54083 -5.05796 -2.58912 
397 124 1 0.41 -5.8726 -5.54376 -4.05081 
398 125 2 -0.82 11.8815 -2.62851 -4.17596 
399 125 1 0.41 11.1305 -2.99644 -3.52514 
400 125 1 0.41 -11.5945 -2.5167 -3.55763 
401 126 2 -0.82 8.68703 -11.1356 8.62689 
402 126 1 0.41 7.87014 -11.396 8.05262 
403 126 1 0.41 8.60372 -11.5814 9.49988 
404 127 2 -0.82 3.83931 -11.008 7.66517 
405 127 1 0.41 4.70961 -10.5855 7.91157 
406 127 1 0.41 4.00753 -11.8661 7.14017 
407 128 2 -0.82 -6.24826 5.64101 5.91397 
408 128 1 0.41 -5.51685 6.31449 6.3218 
409 128 1 0.41 -7.08192 6.17205 5.57131 
410 129 2 -0.82 2.92705 -1.74651 3.84085 
411 129 1 0.41 2.67886 -1.18715 2.98045 
412 129 1 0.41 3.95779 -1.71186 3.96667 
413 130 2 -0.82 4.60832 -3.79437 -1.65518 
414 130 1 0.41 5.22713 -4.57112 -1.62489 
415 130 1 0.41 4.55885 -3.49735 -2.62949 
416 131 2 -0.82 -8.66223 10.7651 -1.29106 
417 131 1 0.41 -8.98645 11.5831 -0.749132 
418 131 1 0.41 -7.73119 10.5039 -0.898911 
419 132 2 -0.82 -3.60895 -8.90206 10.6913 
420 132 1 0.41 -4.13653 -8.26534 10.1321 
421 132 1 0.41 -4.2229 -9.20966 11.477 
422 133 2 -0.82 -2.04053 -8.28738 2.70413 
423 133 1 0.41 -1.80658 -7.35604 2.27923 
424 133 1 0.41 -2.62801 -8.87313 2.08143 
425 134 2 -0.82 0.600369 -10.7831 3.35544 
426 134 1 0.41 0.198513 -11.7416 3.61889 
427 134 1 0.41 0.175299 -10.0724 3.94425 
428 135 2 -0.82 10.8078 1.19852 -9.13464 
429 135 1 0.41 11.3844 0.836103 -9.93161 
430 135 1 0.41 10.0208 1.73365 -9.56074 
431 136 2 -0.82 -8.8828 -11.1234 0.264405 
432 136 1 0.41 -8.46727 -10.2253 0.553363 
433 136 1 0.41 -9.05833 -11.7978 1.03048 
434 137 2 -0.82 -11.4763 11.3439 9.90806 
435 137 1 0.41 11.9853 11.3917 9.23343 
436 137 1 0.41 -10.9071 10.5512 9.68062 
437 138 2 -0.82 -8.15217 -7.99099 -12.0387 
438 138 1 0.41 -8.04223 -9.04584 -11.9619 
439 138 1 0.41 -8.81681 -7.79918 11.4778 
440 139 2 -0.82 -6.23564 -0.638137 -4.24056 
441 139 1 0.41 -5.81905 -0.153743 -4.99271 
442 139 1 0.41 -5.62374 -1.49861 -4.13911 
443 140 2 -0.82 -9.11923 -8.26002 5.10882 
444 140 1 0.41 -9.84405 -8.32125 4.38964 
445 140 1 0.41 -8.93254 -7.26475 5.13333 
446 141 2 -0.82 7.89856 10.395 -8.22701 
447 141 1 0.41 6.91915 10.5011 -7.92679 
448 141 1 0.41 8.51713 10.7766 -7.53024 
449 142 2 -0.82 9.55703 -9.75222 -2.50667 
450 142 1 0.41 9.43718 -10.7637 -2.47019 
451 142 1 0.41 10.4229 -9.57141 -3.06697 
452 143 2 -0.82 1.96592 11.3096 0.287387 
453 143 1 0.41 1.55358 10.392 0.431985 
454 143 1 0.41 1.0839 11.892 0.254409 
455 144 2 -0.82 6.86399 -2.05714 -11.7617 
456 144 1 0.41 7.63403 -2.19616 -11.09 
457 144 1 0.41 7.02727 -2.50343 11.5367 
458 145 2 -0.82 7.97015 -6.16933 7.74492 
459 145 1 0.41 8.60351 -6.73645 7.18597 
460 145 1 0.41 8.33228 -6.12503 8.69541 
461 146 2 -0.82 -9.33728 10.4385 -10.787 
462 146 1 0.41 -10.2145 10.1522 -11.1805 
463 146 1 0.41 -8.65836 9.80862 -11.1345 
464 147 2 -0.82 -3.25277 6.38439 10.8411 
465 147 1 0.41 -3.42056 7.33325 10.4329 
466 147 1 0.41 -2.21171 6.18289 10.8628 
467 148 2 -0.82 -4.30603 -10.7808 1.39119 
468 148 1 0.41 -5.16603 -10.6771 2.00564 
469 148 1 0.41 -4.52206 -10.0773 0.713692 
470 149 2 -0.82 8.29274 0.0825933 9.63528 
471 149 1 0.41 7.82102 -0.826764 9.55808 
472 149 1 0.41 7.57559 0.803548 9.47109 
473 150 2 -0.82 11.6352 -0.790543 6.26338 
474 150 1 0.41 -11.8226 -0.44963 5.71769 
475 150 1 0.41 11.4121 -0.0576037 6.90513 
476 151 2 -0.82 6.76586 9.22697 -5.46001 
477 410 1 0.41 4.82356 -6.75531 9.25193 
478 1 5 0.44 -2.53023 -11.2307 -2.67928 
479 152 2 -0.82 5.30265 5.50971 3.28937 
480 152 1 0.41 5.97179 6.12042 2.76186 
481 152 1 0.41 5.56914 4.58392 2.89086 
482 153 2 -0.82 4.84331 -3.68449 8.21258 
483 153 1 0.41 3.90611 -3.85243 8.58665 
484 153 1 0.41 4.86534 -4.24376 7.34951 
485 154 2 -0.82 3.17554 -4.15406 10.4923 
486 154 1 0.41 3.25865 -3.4741 11.3112 
487 154 1 0.41 2.23365 -4.10047 10.0933 
488 155 2 -0.82 2.00907 -5.29935 -4.68725 
489 155 1 0.41 1.65275 -4.44096 -4.14428 
490 155 1 0.41 1.27326 -5.57871 -5.35334 
491 156 2 -0.82 -11.9447 -2.13317 -9.11108 
492 156 1 0.41 12.1245 -1.62857 -8.31485 
493 156 1 0.41 -11.0779 -2.5769 -8.92639 
494 157 2 -0.82 -7.16728 5.67518 -6.06737 
495 157 1 0.41 -6.42475 5.47347 -6.66409 
496 157 1 0.41 -8.05609 5.3688 -6.46288 
497 158 2 -0.82 7.46739 -9.88385 3.43695 
498 158 1 0.41 6.4806 -10.006 2.96817 
499 158 1 0.41 7.84795 -8.97066 3.17054 
500 159 2 -0.82 2.04921 -0.240673 8.61937 
501 159 1 0.41 1.92319 -1.25861 8.53233 
502 159 1 0.41 1.96089 0.17421 7.66071 
503 160 2 -0.82 0.895082 5.88809 5.3207 
504 160 1 0.41 -0.0987673 5.9229 5.41239 
505 160 1 0.41 1.24168 5.28336 6.09547 
506 161 2 -0.82 6.61941 -6.64544 -2.72463 
507 161 1 0.41 5.65249 -6.65236 -3.15138 
508 161 1 0.41 6.86599 -7.64356 -2.40661 
509 162 2 -0.82 -7.89905 -0.523444 -9.58315 
510 162 1 0.41 -8.16175 -0.0288131 -10.3949 
511 162 1 0.41 -8.61316 -0.402202 -8.86115 
512 163 2 -0.82 5.29555 -6.27892 10.7939 
513 163 1 0.41 6.25623 -6.14043 10.7452 
514 163 1 0.41 4.82225 -5.40775 10.6243 
515 164 2 -0.82 2.34921 3.52698 -5.39869 
516 164 1 0.41 2.20148 3.72305 -6.39233 
517 164 1 0.41 1.41082 3.22008 -5.01235 
518 165 2 -0.82 -8.26546 5.31869 3.8892 
519 165 1 0.41 -7.46152 5.85571 3.66134 
520 165 1 0.41 -8.20131 4.38561 3.5032 
521 166 2 -0.82 -5.81183 -4.33938 -11.5405 
522 166 1 0.41 -5.64488 -4.03928 -10.5644 
523 166 1 0.41 -5.07021 -4.97313 -11.8064 
524 167 2 -0.82 -5.08566 -7.25312 9.22107 
525 167 1 0.41 -5.37433 -7.73486 8.41591 
526 167 1 0.41 -4.63447 -6.45362 8.86616 
527 168 2 -0.82 -2.9166 10.5342 -9.50406 
528 168 1 0.41 -1.94919 10.3101 -9.2998 
529 168 1 0.41 -3.44403 9.69432 -9.24692 
530 169 2 -0.82 10.1983 -1.64056 2.19005 
531 169 1 0.41 10.3775 -0.600929 2.1293 
532 169 1 0.41 10.0024 -1.63708 3.19567 
533 170 2 -0.82 5.67972 1.8859 -3.82831 
534 170 1 0.41 5.36491 1.65392 -4.80045 
535 170 1 0.41 5.82541 1.06901 -3.2453 
536 171 2 -0.82 -9.09499 -11.7264 10.3942 
537 171 1 0.41 -9.19403 -11.4987 11.3525 
538 171 1 0.41 -9.96173 12.0433 10.1197 
539 172 2 -0.82 -2.64618 -3.65172 -5.017 
540 172 1 0.41 -2.77455 -3.75535 -5.99089 
541 172 1 0.41 -2.22984 -4.54003 -4.68248 
542 173 2 -0.82 -3.62945 -4.4357 6.28818 
543 173 1 0.41 -4.403 -4.2805 6.96316 
544 173 1 0.41 -3.58428 -5.48726 6.20124 
545 174 2 -0.82 1.78771 -11.8711 -5.55986 
546 174 1 0.41 2.40653 11.7639 -6.03817 
547 174 1 0.41 2.02807 -10.944 -5.90704 
548 175 2 -0.82 0.0605023 2.91654 -4.52616 
549 175 1 0.41 -0.114029 1.99203 -4.14074 
550 175 1 0.41 -0.706239 3.53236 -4.2673 
551 176 2 -0.82 9.23906 5.29951 3.99188 
552 176 1 0.41 8.92953 4.5046 4.63569 
553 176 1 0.41 8.61573 6.06449 3.83333 
554 177 2 -0.82 0.708549 -4.66896 -10.6442 
555 177 1 0.41 0.182427 -3.98405 -11.1761 
556 177 1 0.41 1.01877 -4.09631 -9.85606 
557 178 2 -0.82 10.4695 1.71795 11.0249 
558 178 1 0.41 10.8194 1.19823 11.8321 
559 178 1 0.41 9.81992 1.21063 10.4882 
560 179 2 -0.82 2.95436 0.467391 -9.83999 
561 179 1 0.41 2.01799 0.847352 -10.0742 
562 179 1 0.41 3.51454 0.274775 -10.6953 
563 180 2 -0.82 -8.39197 7.43096 -10.594 
564 180 1 0.41 -7.89292 6.5328 -10.6851 
565 180 1 0.41 -8.13375 7.87019 -9.68073 
566 181 2 -0.82 -5.41823 3.48744 9.71894 
567 181 1 0.41 -5.66849 2.6541 10.2082 
568 181 1 0.41 -5.44047 4.26658 10.3266 
569 182 2 -0.82 -5.84217 -10.2738 -9.65894 
570 182 1 0.41 -5.68537 -9.50978 -10.2712 
571 182 1 0.41 -4.95497 -10.6881 -9.45118 
572 183 2 -0.82 10.6625 -9.95534 1.53071 
573 183 1 0.41 10.1253 -10.6945 1.93947 
574 183 1 0.41 10.1855 -9.69839 0.650611 
575 184 2 -0.82 -5.82549 -3.99436 8.23234 
576 184 1 0.41 -6.76171 -4.19535 8.4401 
577 184 1 0.41 -5.51359 -3.45724 9.06983 
578 185 2 -0.82 9.3504 -3.28024 -6.80692 
579 185 1 0.41 8.9084 -2.64476 -6.07352 
580 185 1 0.41 9.3205 -2.78659 -7.69942 
581 186 2 -0.82 10.783 9.04678 -8.37437 
582 186 1 0.41 11.6116 8.6754 -8.90801 
583 186 1 0.41 10.0092 9.00591 -9.0935 
584 187 2 -0.82 -9.40513 0.964924 -11.6325 
585 187 1 0.41 -10.4095 0.849476 -11.8785 
586 187 1 0.41 -9.36547 1.96495 -11.3332 
587 188 2 -0.82 0.263688 -4.78707 0.882983 
588 188 1 0.41 0.971864 -5.08821 0.206285 
589 188 1 0.41 0.25797 -3.76574 0.824993 
590 189 2 -0.82 -7.83149 -0.894818 9.1433 
591 189 1 0.41 -7.80654 -1.84659 9.6249 
592 189 1 0.41 -7.15765 -0.323582 9.59292 
593 190 2 -0.82 10.3199 -9.26867 7.21656 
594 190 1 0.41 9.57509 -9.78847 7.73372 
595 190 1 0.41 10.9141 -9.95171 6.75521 
596 191 2 -0.82 -7.81017 -5.27744 -1.24519 
597 191 1 0.41 -7.5786 -4.31212 -1.37591 
598 191 1 0.41 -7.0777 -5.63499 -0.546061 
599 192 2 -0.82 -2.18997 0.429371 -10.5379 
600 192 1 0.41 -1.25456 0.820863 -10.3079 
601 192 1 0.41 -2.17815 0.154602 -11.5057 
602 193 2 -0.82 6.92729 -9.11452 -2.0206 
603 193 1 0.41 6.4588 -9.91019 -1.57549 
604 193 1 0.41 7.90864 -9.45976 -2.2038 
605 194 2 -0.82 4.70802 -7.50572 4.4017 
606 194 1 0.41 4.00499 -8.18428 4.7212 
607 194 1 0.41 4.57597 -6.97949 3.53409 
608 195 2 -0.82 0.428468 1.36243 10.2625 
609 195 1 0.41 1.33466 0.937936 10.0251 
610 195 1 0.41 0.0619677 1.78909 9.38915 
611 196 2 -0.82 9.07608 7.64414 -5.23608 
612 196 1 0.41 8.88562 7.26896 -4.28849 
613 196 1 0.41 8.31807 8.38652 -5.40054 
614 197 2 -0.82 -8.04674 -3.62609 10.1083 
615 197 1 0.41 -8.10979 -4.17371 10.9725 
616 197 1 0.41 -9.04663 -3.47042 9.70402 
617 198 2 -0.82 4.60956 10.9697 -1.47837 
618 198 1 0.41 5.1857 10.127 -1.61457 
619 198 1 0.41 4.02371 10.8837 -0.668399 
620 199 2 -0.82 -11.3689 9.28369 -11.8709 
621 199 1 0.41 12.1218 8.78523 -11.4777 
622 199 1 0.41 -11.5502 9.5549 11.3935 
623 200 2 -0.82 2.72695 -9.01162 -3.51906 
624 200 1 0.41 3.44112 -9.65357 -3.34422 
625 200 1 0.41 2.28408 -9.03462 -4.42633 
626 201 2 -0.82 1.89537 8.26999 -8.16554 
627 201 1 0.41 1.42427 8.7633 -7.39926 
628 201 1 0.41 1.57801 7.28607 -8.13432 
629 202 2 -0.82 2.0841 0.774611 -7.43525 
630 202 1 0.41 2.68294 1.42383 -6.97136 
631 202 1 0.41 2.46076 0.475796 -8.4078 
632 203 2 -0.82 -0.0207544 0.494479 0.339493 
633 203 1 0.41 -0.602426 1.10806 -0.303354 
634 203 1 0.41 -0.280756 0.707425 1.35215 
635 204 2 -0.82 9.73912 11.1437 -6.57833 
636 204 1 0.41 10.3856 10.4039 -6.95081 
637 204 1 0.41 10.1962 12.0653 -6.71097 
638 205 2 -0.82 9.66861 1.20439 -0.895053 
639 205 1 0.41 9.13727 1.70305 -1.66596 
640 205 1 0.41 9.28684 0.254685 -0.711304 
641 206 2 -0.82 9.31156 -11.7717 3.44195 
642 206 1 0.41 9.83643 -12.0708 4.28776 
643 206 1 0.41 8.62661 -11.0442 3.67029 
644 207 2 -0.82 -9.23736 8.03659 6.70716 
645 207 1 0.41 -9.95042 8.6832 6.33787 
646 207 1 0.41 -9.3454 7.98106 7.71606 
647 208 2 -0.82 -0.486545 -2.00458 0.264318 
648 208 1 0.41 -0.218935 -1.03906 -0.0753024 
649 208 1 0.41 -0.815542 -2.54043 -0.529352 
650 209 2 -0.82 -1.70368 -10.2512 8.78065 
651 209 1 0.41 -0.801073 -9.74603 8.83824 
652 366 1 0.41 -10.6776 8.11214 9.90094 
653 210 2 -0.82 1.63352 3.55435 -1.49204 
654 210 1 0.41 2.41721 3.80821 -2.11137 
655 210 1 0.41 0.70334 3.64567 -1.97883 
656 211 2 -0.82 -5.67983 5.85669 11.3375 
657 211 1 0.41 -6.23237 6.37873 10.6589 
658 211 1 0.41 -4.64606 6.01193 11.1721 
659 212 2 -0.82 -11.936 0.0265133 -11.2641 
660 212 1 0.41 -11.7571 -0.756945 -10.5762 
661 212 1 0.41 12.1107 -0.292772 12.0509 
662 213 2 -0.82 -10.511 0.0197914 3.9724 
663 213 1 0.41 -9.78508 -0.114539 4.67036 
664 213 1 0.41 -11.1117 0.849356 4.23316 
665 214 2 -0.82 -0.667582 11.0959 4.17967 
666 214 1 0.41 -0.116825 10.482 4.77416 
667 214 1 0.41 -1.25366 11.4299 4.93853 
668 215 2 -0.82 9.58392 5.77368 7.36236 
669 215 1 0.41 9.48592 5.16893 8.20606 
670 215 1 0.41 9.70493 5.08798 6.6216 
671 216 2 -0.82 -1.82884 -2.45622 -9.11584 
672 216 1 0.41 -2.33466 -3.04206 -8.41638 
673 216 1 0.41 -2.25738 -1.54761 -9.36012 
674 217 2 -0.82 -11.9043 -6.40652 8.60519 
675 217 1 0.41 12.0813 -7.3783 8.74765 
676 217 1 0.41 11.8374 -5.91232 9.31245 
677 218 2 -0.82 6.28795 -10.6341 -5.07636 
678 218 1 0.41 7.16048 -11.1128 -4.76235 
679 218 1 0.41 5.5335 -11.0547 -4.53979 
680 219 2 -0.82 9.30789 -3.13034 -2.77512 
681 219 1 0.41 9.12228 -2.65862 -3.66919 
682 219 1 0.41 8.9742 -2.53645 -1.98669 
683 220 2 -0.82 3.84633 3.45047 11.9905 
684 220 1 0.41 4.64102 3.97668 -11.8859 
685 220 1 0.41 4.13173 2.46665 11.926 
686 221 2 -0.82 9.56719 -2.31621 -9.95233 
687 221 1 0.41 10.6095 -2.17619 -9.70047 
688 221 1 0.41 9.5016 -3.30937 -10.2414 
689 222 2 -0.82 3.36795 -2.53493 -11.5385 
690 222 1 0.41 3.77152 -1.64894 -11.8261 
691 222 1 0.41 2.80564 -2.59871 -10.703 
692 223 2 -0.82 2.6758 -4.28116 2.45744 
693 223 1 0.41 2.66914 -3.48745 3.06351 
694 223 1 0.41 1.72455 -4.6638 2.44474 
695 224 2 -0.82 6.97861 -3.52952 10.1051 
696 224 1 0.41 6.13818 -3.4797 9.54816 
697 224 1 0.41 7.61045 -4.1609 9.62556 
698 225 2 -0.82 -0.804094 -2.51294 -11.8678 
699 225 1 0.41 -0.78742 -1.59426 11.8743 
700 225 1 0.41 -1.08256 -2.30195 -10.8973 
701 226 2 -0.82 -1.08269 -0.115483 7.28658 
702 226 1 0.41 -0.997926 -1.06716 7.59709 
703 226 1 0.41 -0.414757 -0.0408803 6.49749 
704 227 2 -0.82 0.68618 -8.06371 -7.98686 
705 227 1 0.41 0.215587 -7.67473 -8.83418 
706 227 1 0.41 0.260336 -7.45688 -7.23437 
707 228 2 -0.82 -3.90288 -6.15916 -11.6978 
708 228 1 0.41 -3.61807 -6.18765 -10.6864 
709 228 1 0.41 -3.20045 -6.83414 -12.0995 
710 229 2 -0.82 7.81667 11.2996 -4.34693 
711 229 1 0.41 7.30569 10.4448 -4.57861 
712 229 1 0.41 8.71867 11.1475 -4.86504 
713 230 2 -0.82 5.12719 0.012576 -5.99499 
714 230 1 0.41 5.37301 -0.661735 -6.69805 
715 230 1 0.41 4.29056 -0.22247 -5.39849 
716 231 2 -0.82 8.05915 10.2354 2.53385 
717 231 1 0.41 8.45746 11.169 2.89167 
718 231 1 0.41 7.72233 10.2217 1.58185 
719 232 2 -0.82 11.9101 7.23271 3.79192 
720 232 1 0.41 -11.756 6.80858 3.07068 
721 232 1 0.41 11.1631 6.53189 3.97586 
722 233 2 -0.82 -11.3806 -11.2514 -1.24014 
723 233 1 0.41 -11.4434 -10.6496 -2.02865 
724 233 1 0.41 -10.4648 -11.2137 -0.794225 