ITEM: TIMESTEP
228990
ITEM: NUMBER OF ATOMS
1429
ITEM: BOX BOUNDS pp pp pp
-12.1247 12.1247
-12.1247 12.1247
-12.1247 12.1247
ITEM: ATOMS id mol type q x y z
1 1 8 0.51 9.92654 1.42289 7.41911
2 1 9 -0.51 10.8023 1.7172 8.19132
3 1 10 -0.47 9.27321 2.38347 6.69004
4 1 5 0.31 8.45626 2.20306 6.07085
5 1 15 -0.11 9.50357 3.8088 6.83647
6 1 7 0.09 8.59866 4.37144 6.41142
7 1 7 0.09 9.69265 4.03048 7.92059
8 1 7 0.09 10.4418 4.04418 6.2656
9 1 15 -0.27 -11.425 -2.01055 7.1976
10 1 7 0.09 -10.7231 -1.445 6.46481
11 1 7 0.09 -11.3989 -3.12772 7.07645
12 1 7 0.09 -11.0832 -1.81855 8.22348
13 1 8 0.51 11.5099 -1.51402 6.77226
14 1 9 -0.51 10.9955 -2.00275 5.77917
15 1 10 -0.47 10.9408 -0.637298 7.57817
16 1 5 0.31 11.26 -0.349665 8.46687
17 1 12 0.07 9.61396 -0.0606111 7.28383
18 1 4 0.09 9.27643 -0.143162 6.26709
19 1 12 -0.18 8.54172 -0.428232 8.33978
20 1 7 0.09 8.40335 -1.59223 8.16886
21 1 7 0.09 8.85855 -0.247314 9.3024
22 1 11 -0.28 7.20336 0.309959 8.36208
23 1 7 0.09 7.36295 1.38781 8.30021
24 1 7 0.09 6.57758 0.240662 7.41692
25 1 14 0.62 6.21886 -0.0501698 9.48923
26 1 17 -0.76 6.00514 0.858319 10.4013
27 1 17 -0.76 5.57346 -1.11857 9.51805
28 2 2 -0.82 3.97904 11.8858 0.718286
29 2 1 0.41 3.65187 -11.4876 0.24134
30 414 1 0.41 11.5436 -2.2755 -10.5066
31 2 1 0.41 3.22109 11.2926 1.11637
32 3 2 -0.82 10.8588 -4.57081 4.82987
33 3 1 0.41 10.75 -4.59662 3.80518
34 3 1 0.41 10.7607 -3.65922 5.24804
35 4 2 -0.82 -2.4428 10.8485 -3.36686
36 4 1 0.41 -3.15718 11.1755 -4.02577
37 4 1 0.41 -2.37147 9.8281 -3.57239
38 5 2 -0.82 -8.61114 -11.4115 10.5492
39 5 1 0.41 -8.12797 -11.4052 9.63505
40 5 1 0.41 -9.53284 -11.0 10.3788
41 6 2 -0.82 7.84146 1.18577 -6.11442
42 6 1 0.41 8.38462 0.378334 -6.45234
43 6 1 0.41 7.91918 1.20382 -5.07952
44 7 2 -0.82 -0.29758 -2.42953 10.3177
45 7 1 0.41 0.103648 -2.23897 11.2276
46 7 1 0.41 -1.2895 -2.55611 10.2588
47 8 2 -0.82 9.9901 -4.20939 2.06668
48 8 1 0.41 10.0379 -5.16798 1.79532
49 8 1 0.41 10.7986 -3.70584 1.65562
50 9 2 -0.82 3.66081 -1.01484 -9.50191
51 9 1 0.41 3.02076 -1.80148 -9.31596
52 9 1 0.41 3.91469 -0.84933 -10.4584
53 10 3 -0.82 11.2703 -0.679323 -3.20582
54 10 4 0.41 11.4805 -0.059556 -4.00853
55 10 4 0.41 11.1817 -1.62103 -3.54225
56 11 2 -0.82 8.27798 -1.39082 -7.20658
57 11 1 0.41 7.86956 -2.25482 -6.83213
58 11 1 0.41 9.25824 -1.54099 -7.49123
59 12 2 -0.82 0.189733 1.07731 -8.8701
60 12 1 0.41 1.13633 0.75997 -8.58721
61 12 1 0.41 0.146768 2.06828 -9.05353
62 13 2 -0.82 -7.53143 -3.60161 0.9413
63 13 1 0.41 -7.67276 -2.96046 0.205117
64 13 1 0.41 -7.35103 -2.99177 1.7326
65 14 2 -0.82 -1.9697 -10.7404 -7.60626
66 14 1 0.41 -1.33795 -10.1509 -8.21184
67 14 1 0.41 -1.71006 -11.766 -7.81215
68 15 2 -0.82 -6.80109 -6.47685 8.18074
69 15 1 0.41 -6.25644 -5.88652 7.52733
70 15 1 0.41 -7.33214 -7.17711 7.65603
71 16 2 -0.82 6.99278 11.6649 4.69266
72 16 1 0.41 6.38188 -11.8615 4.99647
73 16 1 0.41 7.51627 -12.1363 3.89689
74 17 2 -0.82 -4.49926 10.7866 1.49412
75 17 1 0.41 -4.53062 11.5792 2.09993
76 17 1 0.41 -3.65473 10.2208 1.71405
77 18 2 -0.82 8.34186 1.92327 -10.2965
78 18 1 0.41 8.75891 2.724 -9.72306
79 18 1 0.41 7.99071 2.2169 -11.2427
80 19 2 -0.82 8.41701 -2.35689 4.87551
81 19 1 0.41 8.19876 -3.27933 5.23212
82 19 1 0.41 9.36558 -1.98401 4.87294
83 20 2 -0.82 11.7466 -6.49373 -3.80358
84 20 1 0.41 10.7668 -6.65028 -4.10811
85 20 1 0.41 -12.0149 -7.32352 -4.17875
86 21 2 -0.82 -3.78962 6.70353 -3.25498
87 21 1 0.41 -4.69072 7.21239 -3.33646
88 21 1 0.41 -3.53056 6.96829 -2.28096
89 22 2 -0.82 5.39113 9.57373 0.751283
90 22 1 0.41 5.29313 9.74629 1.77757
91 22 1 0.41 5.12024 10.4672 0.344273
92 23 2 -0.82 -7.48894 10.5871 2.34538
93 23 1 0.41 -6.52923 10.2597 2.25929
94 23 1 0.41 -7.72713 11.2069 1.56226
95 24 2 -0.82 -0.38884 10.0884 7.74936
96 24 1 0.41 0.548017 10.267 8.18123
97 24 1 0.41 -0.83583 9.54633 8.47641
98 25 2 -0.82 8.30132 9.1774 -11.7887
99 25 1 0.41 9.28229 9.14277 12.1267
100 25 1 0.41 8.13782 10.1012 -11.3324
101 26 2 -0.82 3.01157 -3.97568 -11.6871
102 26 1 0.41 2.94225 -3.04799 12.0865
103 26 1 0.41 2.77591 -3.78834 -10.7085
104 27 2 -0.82 10.339 -1.54408 -0.0439264
105 27 1 0.41 11.1325 -2.03681 0.437255
106 27 1 0.41 10.5932 -0.896178 -0.779408
107 28 2 -0.82 -6.18093 1.08904 -9.64486
108 28 1 0.41 -5.29101 0.544466 -9.64893
109 28 1 0.41 -6.42905 1.30738 -8.66567
110 29 2 -0.82 -6.05082 8.09036 2.97586
111 29 1 0.41 -6.67731 8.86476 3.17692
112 29 1 0.41 -5.07007 8.41616 3.01291
113 30 2 -0.82 -10.6888 -9.45552 1.708
114 30 1 0.41 -10.638 -9.34813 0.660894
115 30 1 0.41 -10.3443 -8.55136 2.17378
116 31 2 -0.82 1.85366 11.2477 -2.93197
117 31 1 0.41 2.74682 11.7659 -2.86289
118 31 1 0.41 1.30511 11.6962 -3.66957
119 32 2 -0.82 -9.96492 -0.999194 -2.94076
120 69 1 0.41 -11.0693 3.27252 -10.9008
121 32 1 0.41 -10.8776 -0.765059 -3.346
122 33 2 -0.82 -0.591215 -2.81713 -2.67121
123 33 1 0.41 -0.12299 -3.67409 -2.47453
124 33 1 0.41 -0.151699 -2.46138 -3.51663
125 34 2 -0.82 11.3323 -11.4725 -11.9853
126 34 1 0.41 -12.2912 -12.28 -12.0194
127 34 1 0.41 11.543 -11.0082 11.3685
128 35 2 -0.82 3.22902 -9.75681 -0.181882
129 35 1 0.41 3.38764 -8.79957 0.209814
130 35 1 0.41 2.26313 -9.9899 -0.471735
131 36 2 -0.82 2.16125 -8.26993 -4.88351
132 36 1 0.41 1.39977 -7.82846 -4.36
133 36 1 0.41 2.24825 -7.8732 -5.79773
134 37 2 -0.82 -6.72125 8.89822 7.5056
135 37 1 0.41 -6.49502 7.88358 7.42834
136 37 1 0.41 -7.14927 9.09106 8.43594
137 38 2 -0.82 -2.93694 9.89682 4.36283
138 38 1 0.41 -2.05407 10.4443 4.59197
139 38 1 0.41 -3.36093 10.0263 5.28688
140 39 2 -0.82 -1.05396 4.45047 9.05656
141 39 1 0.41 -1.20194 5.30443 8.57164
142 39 1 0.41 -1.07794 3.6411 8.33454
143 40 2 -0.82 3.56452 2.84201 5.9975
144 40 1 0.41 4.27551 3.15714 6.67669
145 40 1 0.41 3.5536 1.81612 6.08545
146 41 2 -0.82 4.93291 -9.17869 -6.85332
147 320 1 0.41 -3.20413 -0.882081 5.277
148 41 1 0.41 5.55195 -8.49104 -7.24507
149 42 2 -0.82 10.2013 -7.56648 1.232
150 42 1 0.41 10.6982 -8.3661 1.61889
151 42 1 0.41 10.4735 -7.4505 0.238377
152 43 2 -0.82 -7.13025 5.95499 -8.70169
153 43 1 0.41 -7.10701 5.12118 -9.31698
154 43 1 0.41 -7.99505 5.94238 -8.16615
155 44 2 -0.82 9.23594 2.20041 3.28162
156 44 1 0.41 9.63563 1.27792 3.46554
157 44 1 0.41 9.91977 2.8231 2.78768
158 45 2 -0.82 -10.9229 8.6108 -8.37286
159 45 1 0.41 -11.0957 7.60034 -8.28571
160 45 1 0.41 -10.2808 8.85991 -7.66795
161 46 2 -0.82 5.43147 1.17308 1.98639
162 46 1 0.41 5.85258 1.20289 1.06635
163 134 1 0.41 7.24989 6.11151 7.18495
164 47 2 -0.82 3.17387 -0.568665 -2.62372
165 47 1 0.41 4.2153 -0.569602 -2.63987
166 47 1 0.41 2.71573 -0.879217 -3.53285
167 48 2 -0.82 7.96789 -11.1565 10.3995
168 48 1 0.41 7.38471 -10.9878 9.54058
169 310 1 0.41 6.95422 -2.54254 6.99412
170 49 2 -0.82 0.735459 -7.26565 1.19222
171 49 1 0.41 0.3625 -6.43414 1.71654
172 49 1 0.41 -0.0600494 -7.54233 0.609545
173 50 2 -0.82 -4.41348 -7.70193 5.67238
174 50 1 0.41 -3.91355 -6.86978 5.37636
175 50 1 0.41 -4.20465 -7.8256 6.68251
176 51 2 -0.82 -7.48277 -11.5037 0.695068
177 51 1 0.41 -6.44847 -11.4583 0.685751
178 51 1 0.41 -7.99915 -10.606 0.653456
179 52 2 -0.82 8.62856 -4.33267 6.74761
180 52 1 0.41 8.67245 -5.10606 6.09563
181 52 1 0.41 8.93592 -4.75363 7.59725
182 53 2 -0.82 -11.8827 1.30791 0.836238
183 53 1 0.41 -11.0838 0.938594 1.34653
184 53 1 0.41 -11.691 1.608 -0.14088
185 54 2 -0.82 5.10983 -2.56868 -7.50222
186 54 1 0.41 4.59707 -3.39296 -7.78425
187 54 1 0.41 4.78894 -1.82935 -8.11846
188 55 2 -0.82 6.06068 -10.9498 -11.9281
189 55 1 0.41 6.38733 -10.9154 -10.932
190 55 1 0.41 5.08802 -11.2408 -11.928
191 56 2 -0.82 -0.830048 -6.97532 -10.5321
192 56 1 0.41 -1.16929 -6.57162 -9.62183
193 56 1 0.41 -1.58021 -7.53969 -10.9366
194 57 2 -0.82 -11.0032 1.74197 7.10546
195 57 1 0.41 -11.9464 1.82179 7.45048
196 57 1 0.41 -10.5654 2.6475 7.35439
197 58 2 -0.82 -0.905063 -2.3874 6.98314
198 58 1 0.41 0.0965722 -2.54725 7.00413
199 58 1 0.41 -1.09129 -1.45749 6.76304
200 59 2 -0.82 11.3421 0.164115 3.1147
201 59 1 0.41 11.8176 0.32206 2.20413
202 59 1 0.41 10.6746 -0.575474 2.93972
203 60 2 -0.82 6.44544 -0.667445 4.65194
204 60 1 0.41 7.31669 -1.23215 4.77592
205 60 1 0.41 6.61769 0.355582 4.716
206 61 2 -0.82 -0.720675 1.1143 -3.65127
207 61 1 0.41 -0.866028 1.98621 -4.14662
208 61 1 0.41 -0.174377 1.42513 -2.83917
209 62 2 -0.82 -4.75851 5.47679 10.6498
210 62 1 0.41 -5.10355 6.41992 10.6281
211 62 1 0.41 -5.38966 4.69596 10.7921
212 63 2 -0.82 -10.5305 10.7311 -12.1099
213 63 1 0.41 -10.5802 9.71713 12.1764
214 63 1 0.41 -9.57124 10.9938 11.9168
215 64 2 -0.82 -9.82145 6.54049 4.89975
216 64 1 0.41 -9.66149 7.48661 5.25474
217 64 1 0.41 -8.87397 6.07843 5.01081
218 65 2 -0.82 -3.86391 1.35034 -6.48514
219 65 1 0.41 -3.00759 1.88925 -6.71752
220 65 1 0.41 -3.44847 0.448601 -6.67552
221 66 2 -0.82 -5.17614 -11.8523 3.72353
222 66 1 0.41 -4.61988 -11.1065 4.0726
223 155 1 0.41 3.82907 -11.0431 -6.69064
224 67 2 -0.82 -7.84957 11.4998 -11.5168
225 67 1 0.41 -8.15319 -12.1232 11.9511
226 67 1 0.41 -7.02279 11.8273 -11.03
227 68 2 -0.82 1.55883 7.258 10.5309
228 68 1 0.41 2.19462 7.66924 11.1895
229 68 1 0.41 1.21408 6.37613 10.9532
230 69 2 -0.82 -10.1446 2.95017 -10.6409
231 162 1 0.41 10.495 11.1768 8.83441
232 69 1 0.41 -9.95637 2.10706 -11.1953
233 70 2 -0.82 -9.4877 10.1893 -5.10459
234 70 1 0.41 -10.2778 9.83913 -4.51115
235 70 1 0.41 -9.02533 9.44753 -5.66324
236 71 2 -0.82 -3.22566 -9.49494 4.19918
237 71 1 0.41 -2.2124 -9.26023 4.15
238 71 1 0.41 -3.76526 -8.78771 4.78673
239 72 2 -0.82 6.87033 -7.8676 -8.34012
240 72 1 0.41 7.70368 -7.59236 -7.79115
241 72 1 0.41 7.10312 -8.57917 -9.00978
242 73 2 -0.82 -7.00084 8.89788 -10.8207
243 73 1 0.41 -7.69609 9.65195 -10.9868
244 345 1 0.41 11.395 5.30429 9.81596
245 74 2 -0.82 -6.24964 -4.33369 9.74141
246 74 1 0.41 -7.171 -4.00721 9.93966
247 74 1 0.41 -6.2549 -5.29087 9.39743
248 75 2 -0.82 -6.80484 -8.228 3.81307
249 75 1 0.41 -6.23859 -7.91323 4.60406
250 75 1 0.41 -6.46529 -7.89158 2.87283
251 76 2 -0.82 10.7007 3.45161 1.34139
252 76 1 0.41 11.4961 3.84939 1.80787
253 76 1 0.41 11.0194 2.58618 0.916074
254 77 2 -0.82 2.77985 10.2359 -10.7795
255 77 1 0.41 2.67613 11.0571 -11.3874
256 77 1 0.41 3.58122 9.65207 -11.0799
257 78 2 -0.82 -4.39919 -0.256353 -4.23108
258 78 1 0.41 -4.42266 0.00652292 -5.23926
259 78 1 0.41 -3.76216 -1.02205 -4.06026
260 79 2 -0.82 2.85111 6.99168 5.19774
261 79 1 0.41 2.0049 6.68136 5.78469
262 79 1 0.41 2.97066 6.15989 4.54739
263 80 2 -0.82 5.72039 8.03007 5.01265
264 80 1 0.41 6.34628 7.20865 5.12988
265 80 1 0.41 4.7644 7.68299 5.22228
266 81 2 -0.82 3.31361 -7.01157 0.763186
267 81 1 0.41 3.60103 -6.23615 1.42325
268 81 1 0.41 2.26677 -7.05317 0.785958
269 82 2 -0.82 -10.7169 -8.68765 -5.52876
270 82 1 0.41 -9.92107 -9.27993 -5.61081
271 82 1 0.41 -11.6548 -9.10983 -5.67095
272 83 2 -0.82 3.18594 -5.76098 8.455
273 83 1 0.41 2.73686 -5.06836 7.83004
274 83 1 0.41 3.85827 -5.43545 9.13252
275 84 2 -0.82 -9.46271 8.78547 -1.52505
276 84 1 0.41 -9.67307 8.51748 -2.51702
277 84 1 0.41 -10.3192 8.8768 -0.981523
278 85 2 -0.82 -10.3645 -11.9924 0.707082
279 85 1 0.41 -10.3109 -11.075 1.18019
280 85 1 0.41 -10.3047 11.5875 1.46787
281 86 2 -0.82 -5.5083 -2.78978 -11.0334
282 86 1 0.41 -5.27715 -2.28256 -10.1708
283 86 1 0.41 -4.79 -3.3753 -11.4279
284 87 2 -0.82 9.00757 -5.69756 -9.41454
285 87 1 0.41 8.09084 -5.80442 -9.88908
286 87 1 0.41 9.76809 -5.97778 -10.0246
287 88 2 -0.82 2.36199 -5.11258 4.48787
288 88 1 0.41 2.83659 -4.94043 3.59043
289 88 1 0.41 2.84558 -4.71415 5.30117
290 89 2 -0.82 -8.9527 0.445345 6.47186
291 89 1 0.41 -8.58895 0.0320341 7.30445
292 89 1 0.41 -9.79424 1.05732 6.70928
293 90 2 -0.82 -8.77807 -5.90796 0.596994
294 90 1 0.41 -8.26973 -5.03961 0.914714
295 90 1 0.41 -9.43237 -5.73357 -0.186979
296 91 2 -0.82 -11.2275 -3.71971 -6.54093
297 91 1 0.41 -10.9689 -4.70381 -6.30851
298 91 1 0.41 -10.8719 -3.15819 -5.76262
299 92 2 -0.82 -1.58187 3.14676 -6.62935
300 92 1 0.41 -1.51967 3.7062 -5.75474
301 92 1 0.41 -1.06157 3.43617 -7.44174
302 93 2 -0.82 5.49592 -9.21946 -4.1407
303 93 1 0.41 6.01329 -9.01846 -3.28851
304 93 1 0.41 4.74826 -9.90129 -3.93433
305 94 2 -0.82 -1.53607 4.02986 -4.02949
306 94 1 0.41 -2.31587 3.35753 -3.90614
307 94 1 0.41 -1.80936 4.83508 -3.50152
308 95 2 -0.82 6.41389 -11.6105 -1.37943
309 95 1 0.41 6.27323 -11.2854 -0.421292
310 95 1 0.41 7.36664 -12.0253 -1.33901
311 96 3 -0.32 2.28242 2.46001 8.68159
312 96 4 0.44 3.20901 2.4952 9.21803
313 96 4 0.44 1.57813 1.84378 9.27897
314 97 2 -0.82 -5.14141 -6.93788 -1.14185
315 97 1 0.41 -5.30113 -7.57794 -1.92316
316 97 1 0.41 -4.23096 -6.45817 -1.28053
317 98 2 -0.82 11.5636 7.47874 -0.836695
318 98 1 0.41 11.4239 8.42804 -0.524397
319 98 1 0.41 10.7517 6.85113 -0.662598
320 99 2 -0.82 -3.96852 2.74059 -3.53798
321 99 1 0.41 -4.61961 3.12395 -4.21657
322 99 1 0.41 -3.78249 1.74694 -3.72069
323 100 2 -0.82 -4.22506 -0.876012 -9.68945
324 100 1 0.41 -3.42192 -0.797871 -9.03651
325 100 1 0.41 -3.90932 -0.517697 -10.6065
326 101 2 -0.82 -9.41028 -6.41056 9.59517
327 101 1 0.41 -8.39898 -6.38344 9.44639
328 101 1 0.41 -9.69366 -5.43036 9.86978
329 102 2 -0.82 6.4953 2.76529 -8.24812
330 102 1 0.41 6.96881 2.23759 -7.50959
331 102 1 0.41 6.90131 2.26293 -9.04775
332 103 2 -0.82 3.69653 -10.5481 4.68429
333 103 1 0.41 3.68593 -9.63643 4.2283
334 103 1 0.41 2.78932 -11.0564 4.6485
335 104 2 -0.82 -9.09085 3.40404 -2.23775
336 104 1 0.41 -9.93652 3.86268 -1.85939
337 104 1 0.41 -8.40946 4.10425 -2.53872
338 105 2 -0.82 7.6446 -8.49447 -12.1458
339 105 1 0.41 6.6521 -8.44792 -12.0278
340 105 1 0.41 7.79353 -9.49784 11.8848
341 106 2 -0.82 1.06301 -11.7718 -5.54083
342 106 1 0.41 0.755059 -10.9886 -6.11427
343 106 1 0.41 2.05412 -11.9297 -5.73913
344 107 2 -0.82 11.2328 -7.58046 -1.2488
345 107 1 0.41 12.1467 -7.99766 -1.00533
346 107 1 0.41 11.4112 -7.19914 -2.17839
347 108 2 -0.82 -3.10853 -8.49226 -6.60553
348 108 1 0.41 -3.92173 -8.93133 -6.20244
349 108 1 0.41 -2.62889 -9.29535 -6.96687
350 109 2 -0.82 5.35169 8.7992 -11.1747
351 109 1 0.41 6.3113 8.82464 -11.5835
352 109 1 0.41 5.41243 7.88329 -10.732
353 110 2 -0.82 -11.1904 2.21921 4.53631
354 110 1 0.41 -11.0077 2.02178 5.50722
355 110 1 0.41 -11.9357 1.58437 4.20259
356 111 2 -0.82 1.96661 11.4377 9.32921
357 111 1 0.41 2.62914 10.7215 9.55328
358 111 1 0.41 2.27586 12.0088 8.52778
359 112 2 -0.82 0.631329 5.62141 -1.97415
360 112 1 0.41 0.120547 5.63641 -2.85634
361 112 1 0.41 1.54009 6.13566 -2.12833
362 113 2 -0.82 -5.25046 -0.431121 -1.33496
363 113 1 0.41 -4.36916 -0.28937 -0.812856
364 113 1 0.41 -5.06856 -0.230265 -2.3393
365 114 2 -0.82 8.61307 -7.41927 6.1883
366 114 1 0.41 8.21609 -7.99356 6.91106
367 114 1 0.41 8.09651 -7.30405 5.33658
368 115 2 -0.82 8.78144 -6.14541 -6.76914
369 115 1 0.41 8.01204 -5.52457 -6.37115
370 115 1 0.41 9.10281 -5.72223 -7.67027
371 116 2 -0.82 0.511892 2.70209 1.92044
372 116 1 0.41 1.17589 2.16692 2.50088
373 116 1 0.41 0.474736 2.42045 0.986204
374 117 2 -0.82 -5.8309 -7.73907 1.38845
375 117 1 0.41 -5.72477 -8.72614 1.27832
376 117 1 0.41 -5.54746 -7.23823 0.494858
377 118 2 -0.82 -0.785682 11.0218 5.10723
378 118 1 0.41 -0.188451 11.826 4.94942
379 118 1 0.41 -0.412933 10.5342 5.93604
380 119 2 -0.82 -0.525271 3.36791 4.67543
381 119 1 0.41 -0.985546 4.17625 4.23896
382 119 1 0.41 0.0698149 2.97174 3.88597
383 120 2 -0.82 -0.79855 -3.88116 -6.34716
384 120 1 0.41 -1.23213 -3.91789 -7.2594
385 120 1 0.41 -0.994863 -2.99778 -5.98178
386 121 2 -0.82 6.45802 9.08022 -4.96168
387 121 1 0.41 6.54731 8.29843 -4.27345
388 121 1 0.41 7.46596 9.26705 -5.19591
389 122 2 -0.82 -7.8867 5.75952 8.49305
390 122 1 0.41 -7.1194 5.41546 7.94602
391 122 1 0.41 -7.62255 5.79214 9.5178
392 123 2 -0.82 8.75017 10.2598 -8.06951
393 123 1 0.41 7.78876 10.0053 -8.41431
394 123 1 0.41 9.29757 10.5202 -8.91241
395 124 2 -0.82 -10.621 -5.88943 -11.3418
396 124 1 0.41 -10.0617 -5.13055 -11.6649
397 124 1 0.41 -11.5411 -5.66554 -11.7717
398 125 2 -0.82 10.8741 -2.32329 -7.49996
399 125 1 0.41 10.9581 -2.75776 -8.43839
400 125 1 0.41 11.7948 -2.64271 -7.1619
401 126 2 -0.82 -10.8849 -10.751 9.80831
402 126 1 0.41 -11.1907 -9.81108 10.1055
403 126 1 0.41 -10.998 -10.7601 8.82582
404 127 2 -0.82 -9.89415 -7.19695 2.87589
405 127 1 0.41 -9.57828 -6.43229 2.25998
406 127 1 0.41 -9.17912 -7.59497 3.47227
407 128 2 -0.82 6.97325 -10.8916 -9.2656
408 128 1 0.41 7.70559 -10.9032 -8.54822
409 128 1 0.41 6.18016 -10.7551 -8.67502
410 129 2 -0.82 -5.71828 4.73679 -5.40879
411 129 1 0.41 -5.83134 5.43605 -6.16071
412 129 1 0.41 -5.26846 5.22291 -4.62603
413 130 2 -0.82 -3.41829 8.27945 7.96375
414 130 1 0.41 -3.67884 9.23243 7.67195
415 130 1 0.41 -3.72198 8.23315 8.97288
416 131 2 -0.82 -1.28204 -10.9963 -1.33256
417 131 1 0.41 -1.51057 -11.7582 -1.96141
418 131 1 0.41 -2.15717 -10.5072 -1.26411
419 132 2 -0.82 -4.50931 -8.4807 8.3352
420 132 1 0.41 -5.34298 -7.93037 8.62558
421 132 1 0.41 -4.38529 -9.17708 9.09536
422 133 2 -0.82 3.7886 -4.61197 2.19123
423 133 1 0.41 3.28837 -3.9735 1.54078
424 133 1 0.41 4.58223 -4.0334 2.49358
425 134 2 -0.82 7.75972 6.44752 7.98858
426 358 1 0.41 -3.99509 -2.80758 10.8364
427 134 1 0.41 8.08821 7.36609 7.65633
428 135 2 -0.82 -4.66866 6.6325 -7.17015
429 135 1 0.41 -3.96008 7.30554 -6.80211
430 135 1 0.41 -4.36905 5.94823 -7.84714
431 136 2 -0.82 -0.650712 -0.831498 -5.32723
432 136 1 0.41 -1.28071 -0.607243 -6.121
433 136 1 0.41 -0.884924 -0.131811 -4.52228
434 137 2 -0.82 -3.12886 7.7071 -10.1174
435 137 1 0.41 -3.37928 6.81519 -9.61867
436 137 1 0.41 -2.56971 7.58047 -10.967
437 138 2 -0.82 -1.88451 -0.678177 -7.95797
438 138 1 0.41 -1.61793 -1.61916 -8.3371
439 138 1 0.41 -1.34089 0.119434 -8.32262
440 139 2 -0.82 12.0892 2.2272 10.4816
441 139 1 0.41 12.0388 3.25169 10.8046
442 152 1 0.41 6.51966 4.67542 5.42679
443 140 2 -0.82 3.37808 -8.13123 3.48624
444 140 1 0.41 2.6943 -8.54106 2.84472
445 140 1 0.41 3.02168 -7.39977 4.12295
446 141 2 -0.82 4.81249 -5.05462 10.6188
447 141 1 0.41 4.09039 -4.84023 11.3111
448 141 1 0.41 5.44129 -4.23163 10.6902
449 142 2 -0.82 -7.85096 -1.09776 -0.794172
450 142 1 0.41 -6.96623 -0.694854 -1.089
451 142 1 0.41 -8.54954 -1.22201 -1.55387
452 143 2 -0.82 1.69862 7.95456 -9.35068
453 143 1 0.41 2.00839 8.66798 -9.99914
454 143 1 0.41 1.95936 8.20578 -8.36007
455 144 2 -0.82 -1.36594 5.8138 2.98852
456 144 1 0.41 -0.8807 5.48515 2.11061
457 144 1 0.41 -2.32184 5.99709 2.64804
458 145 2 -0.82 -4.17468 -10.4396 -9.21363
459 145 1 0.41 -4.8712 -11.172 -9.15438
460 145 1 0.41 -3.43612 -10.6642 -8.62114
461 146 2 -0.82 11.065 -5.3342 -11.8175
462 146 1 0.41 10.3683 -4.67062 12.1219
463 146 1 0.41 11.2212 -6.02031 11.6869
464 147 2 -0.82 -7.60827 3.64028 -9.97179
465 147 1 0.41 -8.56856 3.43843 -10.3354
466 147 1 0.41 -6.99375 2.80635 -9.97684
467 148 2 -0.82 8.48252 10.2508 -0.573524
468 148 1 0.41 9.02822 10.011 0.285436
469 148 1 0.41 7.58981 9.82834 -0.374967
470 149 2 -0.82 6.94603 7.29492 -7.2867
471 149 1 0.41 7.78273 7.21149 -6.64284
472 149 1 0.41 6.43176 8.18721 -7.04845
473 150 2 -0.82 -2.34351 -5.8958 -1.3129
474 150 1 0.41 -2.22539 -5.86608 -2.30059
475 150 1 0.41 -2.28022 -4.89551 -0.996958
476 151 2 -0.82 7.62614 9.44525 6.89216
477 151 1 0.41 6.86581 9.22482 6.22387
478 151 1 0.41 8.17702 10.1657 6.44896
479 152 2 -0.82 6.64095 5.5573 4.95528
480 152 1 0.41 6.81006 5.34538 3.97919
481 46 1 0.41 5.16183 0.270344 2.27125
482 153 2 -0.82 0.879369 5.3433 6.50326
483 153 1 0.41 -0.0471891 5.68658 6.61802
484 153 1 0.41 0.987171 4.99067 5.55019
485 154 2 -0.82 8.35616 -10.9733 -4.56616
486 154 1 0.41 7.51122 -10.6014 -4.113
487 154 1 0.41 9.10888 -10.6094 -3.97302
488 155 2 -0.82 3.61788 -11.8883 -6.14527
489 155 1 0.41 4.29924 12.2777 -5.37995
490 397 1 0.41 10.9096 5.94687 4.65239
491 156 2 -0.82 10.2286 -11.8812 -0.828775
492 156 1 0.41 9.71508 11.5175 -0.684769
493 156 1 0.41 11.1243 12.0731 -1.20628
494 157 2 -0.82 0.1891 -12.0868 1.33137
495 157 1 0.41 -0.181691 -11.7852 0.419899
496 157 1 0.41 -0.32717 11.3713 1.73661
497 158 2 -0.82 -3.39488 7.27114 -0.663019
498 158 1 0.41 -2.53688 7.50924 -0.242836
499 158 1 0.41 -3.63476 6.28133 -0.604725
500 159 2 -0.82 3.92877 10.4767 -8.01411
501 159 1 0.41 3.19574 10.4893 -8.73732
502 159 1 0.41 3.83211 11.3243 -7.45269
503 160 2 -0.82 4.89715 -1.52809 1.16745
504 160 1 0.41 5.26835 -2.32547 1.66771
505 160 1 0.41 5.44889 -1.31285 0.308613
506 161 2 -0.82 5.53627 4.37996 0.234525
507 161 1 0.41 4.61691 4.04161 0.536579
508 161 1 0.41 5.39439 5.3909 0.168682
509 162 2 -0.82 10.8068 10.2548 9.15687
510 162 1 0.41 10.5232 10.2792 10.1062
511 453 1 0.41 -7.61007 -2.96831 6.0324
512 163 2 -0.82 3.89769 3.3853 -9.27549
513 163 1 0.41 3.43967 2.54178 -8.95262
514 163 1 0.41 4.60186 3.7869 -8.6646
515 164 2 -0.82 -11.5293 9.73631 -3.20661
516 164 1 0.41 -11.9663 9.9034 -2.26931
517 164 1 0.41 12.1174 9.0421 -3.73439
518 165 2 -0.82 -6.40255 2.55577 -7.04045
519 165 1 0.41 -5.48998 2.10946 -7.1399
520 165 1 0.41 -6.28644 3.43277 -6.54323
521 166 2 -0.82 3.35683 3.01133 1.21528
522 166 1 0.41 4.28185 2.52129 1.47812
523 166 1 0.41 2.89043 2.55345 0.379356
524 167 2 -0.82 11.071 4.66694 -3.21629
525 73 1 0.41 -7.49126 7.98959 -10.6378
526 167 1 0.41 10.3222 4.20359 -2.73247
527 168 2 -0.82 0.0236744 -1.52783 -11.4248
528 168 1 0.41 -0.516904 -0.79522 -10.9683
529 168 1 0.41 1.02843 -1.35265 -11.5332
530 169 2 -0.82 9.8345 6.67331 -9.47817
531 169 1 0.41 9.29071 7.18599 -8.74099
532 169 1 0.41 9.38813 6.98076 -10.3143
533 170 2 -0.82 -10.3071 -5.29213 -1.56499
534 170 1 0.41 -10.3736 -4.2679 -1.49645
535 170 1 0.41 -11.112 -5.70775 -1.93676
536 171 2 -0.82 -2.82686 -5.64688 4.90221
537 171 1 0.41 -1.94858 -6.03438 5.26052
538 171 1 0.41 -3.04202 -4.97839 5.63881
539 172 2 -0.82 5.77465 -8.35949 7.91428
540 172 1 0.41 5.41438 -7.64723 7.22087
541 172 1 0.41 5.01719 -8.65719 8.5878
542 173 2 -0.82 11.4852 9.76179 -9.87765
543 173 1 0.41 11.951 10.6029 -9.65038
544 173 1 0.41 11.9502 9.03317 -9.36813
545 174 2 -0.82 1.09474 -9.56672 2.36518
546 174 1 0.41 0.686668 -10.3237 1.8338
547 174 1 0.41 0.969666 -8.69039 1.76876
548 175 2 -0.82 -4.28603 -3.20214 -5.8091
549 175 1 0.41 -4.84124 -2.36998 -6.05329
550 175 1 0.41 -4.15911 -3.5951 -6.7189
551 176 2 -0.82 -2.9353 0.0461047 -0.211761
552 176 1 0.41 -2.55783 0.581765 0.568249
553 176 1 0.41 -2.16305 -0.135597 -0.830512
554 177 2 -0.82 8.70709 -11.8102 2.28772
555 177 1 0.41 7.80496 -11.4033 1.85501
556 177 1 0.41 9.41304 -11.041 2.09902
557 178 2 -0.82 5.31338 3.92612 7.5975
558 178 1 0.41 5.57641 3.68443 8.53223
559 178 1 0.41 4.88029 4.88777 7.63422
560 179 2 -0.82 -7.35003 -8.36648 -8.19732
561 179 1 0.41 -8.28864 -8.63914 -8.44651
562 179 1 0.41 -6.82282 -9.21041 -7.96435
563 180 2 -0.82 4.33987 3.11459 -4.54535
564 180 1 0.41 4.75442 3.39634 -5.41447
565 180 1 0.41 4.25175 3.95959 -4.00459
566 181 2 -0.82 -9.72013 -11.2045 -3.29013
567 181 1 0.41 -9.04584 -10.5671 -3.73107
568 181 1 0.41 -9.32225 -11.8898 -2.63267
569 182 2 -0.82 -4.46656 5.64507 2.94134
570 182 1 0.41 -4.05722 5.10698 3.75657
571 182 1 0.41 -5.0802 6.44196 3.17103
572 183 2 -0.82 -4.83144 -2.97592 2.53975
573 183 1 0.41 -5.13111 -3.90728 2.94221
574 183 1 0.41 -4.78724 -3.07451 1.50087
575 184 2 -0.82 -0.182848 10.9204 -10.929
576 184 1 0.41 0.620794 10.6867 -10.389
577 184 1 0.41 -0.204449 11.9578 -10.8828
578 185 2 -0.82 0.0508093 6.20725 -8.17151
579 185 1 0.41 0.644286 6.92316 -8.60881
580 185 1 0.41 -0.862923 6.57231 -8.41038
581 186 2 -0.82 0.203709 10.2688 -6.7973
582 304 1 0.41 2.52047 8.54841 4.30663
583 186 1 0.41 0.516547 11.1182 -6.2805
584 187 2 -0.82 3.53462 -11.4757 7.34339
585 187 1 0.41 3.32521 -11.5749 6.31024
586 187 1 0.41 4.57192 -11.5212 7.32412
587 188 2 -0.82 3.83892 -3.79334 6.35387
588 188 1 0.41 4.68481 -3.43953 6.83787
589 188 1 0.41 3.27425 -2.9748 6.13307
590 189 2 -0.82 2.43256 -0.359369 1.57485
591 189 1 0.41 2.40912 0.121556 0.66469
592 189 1 0.41 3.21606 -0.961114 1.35369
593 190 2 -0.82 -3.31905 -3.67954 6.72547
594 190 1 0.41 -4.02012 -3.14256 7.24789
595 190 1 0.41 -2.33399 -3.3905 6.82394
596 191 2 -0.82 -6.8777 4.86522 -2.57638
597 191 1 0.41 -6.13557 4.1509 -2.37968
598 191 1 0.41 -6.92736 5.62087 -1.88552
599 192 2 -0.82 -4.12374 -6.80794 -10.3069
600 192 1 0.41 -4.62633 -7.03695 -9.44118
601 192 1 0.41 -4.29909 -7.5038 -11.002
602 193 2 -0.82 5.60808 -8.19444 1.91933
603 193 1 0.41 4.87971 -8.07115 2.60257
604 193 1 0.41 5.31431 -7.97663 0.948308
605 194 2 -0.82 11.9441 10.9295 4.8909
606 194 1 0.41 -11.9368 10.5875 3.98084
607 194 1 0.41 -11.4186 11.4347 5.22345
608 195 2 -0.82 -4.73853 10.2303 -1.9429
609 195 1 0.41 -3.78353 10.4835 -2.21015
610 195 1 0.41 -4.64507 9.983 -0.955666
611 196 2 -0.82 -2.7264 7.80365 -5.38594
612 196 1 0.41 -1.66979 7.68707 -5.27404
613 196 1 0.41 -3.10561 7.30835 -4.54574
614 197 2 -0.82 8.56163 5.7875 -5.73842
615 197 1 0.41 9.09471 4.9609 -6.03975
616 197 1 0.41 9.21143 6.57258 -5.83027
617 198 2 -0.82 9.05068 11.7143 -10.3606
618 198 1 0.41 8.30139 -11.8732 -10.2368
619 198 1 0.41 9.86655 12.2153 -10.7162
620 199 2 -0.82 9.35731 11.5507 5.90743
621 199 1 0.41 8.50598 11.6214 5.28649
622 199 1 0.41 10.2348 11.4304 5.36103
623 200 2 -0.82 5.16917 7.01838 -0.092673
624 200 1 0.41 4.60097 7.04179 -0.906948
625 200 1 0.41 5.33995 7.99899 0.228908
626 201 2 -0.82 -7.99612 -11.078 3.89305
627 201 1 0.41 -7.7341 -11.8765 3.35268
628 201 1 0.41 -7.56551 -10.2123 3.57519
629 202 2 -0.82 5.7995 -3.18371 3.17992
630 202 1 0.41 6.565 -3.90475 3.26057
631 202 1 0.41 5.70862 -2.54378 3.9735
632 203 2 -0.82 -2.73267 -10.0266 1.58044
633 203 1 0.41 -3.05125 -9.89375 2.54615
634 203 1 0.41 -2.40436 -9.1604 1.11973
635 204 2 -0.82 9.39059 -5.50248 8.88151
636 204 1 0.41 8.6538 -6.2271 8.87351
637 204 1 0.41 10.2227 -5.99722 9.12106
638 205 2 -0.82 -5.71149 2.80249 -0.381593
639 205 1 0.41 -5.31006 2.21694 -1.08385
640 205 1 0.41 -6.72787 2.80863 -0.497763
641 206 2 -0.82 10.9285 -10.2536 1.51146
642 206 1 0.41 11.8439 -9.79126 1.62623
643 206 1 0.41 10.9245 -10.7697 0.667031
644 207 2 -0.82 11.9703 -11.7262 -3.29861
645 207 1 0.41 -11.2594 -11.5268 -3.42578
646 207 1 0.41 11.8268 11.5535 -3.62648
647 208 2 -0.82 -10.4718 -1.68749 10.7489
648 208 1 0.41 -11.4747 -1.64123 10.9567
649 208 1 0.41 -9.95555 -0.918369 11.2325
650 209 2 -0.82 1.73624 -2.63512 7.89811
651 209 1 0.41 2.52232 -2.02961 8.08382
652 209 1 0.41 1.04636 -2.52528 8.6452
653 210 2 -0.82 1.65282 -3.50718 0.85375
654 210 1 0.41 1.11678 -4.11345 1.49539
655 210 1 0.41 1.42166 -3.71939 -0.144145
656 211 2 -0.82 -3.81237 4.69347 0.372497
657 211 1 0.41 -4.50475 3.96195 0.153375
658 211 1 0.41 -3.94744 4.98382 1.36831
659 212 2 -0.82 -7.03485 9.84774 9.90111
660 212 1 0.41 -7.18832 9.99571 10.9131
661 212 1 0.41 -6.72424 10.6912 9.35229
662 213 2 -0.82 4.63908 5.48431 -3.1804
663 213 1 0.41 4.09836 6.3329 -2.94369
664 213 1 0.41 5.57751 5.81353 -3.43587
665 214 2 -0.82 -5.43542 -6.6582 -7.80533
666 214 1 0.41 -4.86917 -7.09619 -7.06315
667 214 1 0.41 -6.29918 -7.25158 -7.9019
668 215 2 -0.82 -5.62335 -4.71388 6.13614
669 215 1 0.41 -4.63528 -4.39201 6.13919
670 215 1 0.41 -5.98912 -4.59326 5.22765
671 216 2 -0.82 -6.30724 7.88364 -3.46486
672 216 1 0.41 -6.35668 8.90046 -3.52917
673 216 1 0.41 -7.16597 7.59594 -3.90447
674 217 2 -0.82 9.93088 5.68855 -0.022594
675 217 1 0.41 9.62735 5.05893 -0.81811
676 217 1 0.41 10.0251 4.96806 0.7466
677 218 2 -0.82 -6.93938 3.64562 11.0679
678 218 1 0.41 -7.7055 3.01351 10.7493
679 218 1 0.41 -7.3643 4.47597 11.5738
680 219 2 -0.82 -10.8913 -9.27447 -0.997794
681 219 1 0.41 -10.9094 -10.2088 -1.48569
682 219 1 0.41 -10.028 -8.75239 -1.20352
683 220 2 -0.82 -2.81127 3.4513 11.0517
684 220 1 0.41 -3.3236 4.26918 10.7389
685 220 1 0.41 -2.07708 3.36747 10.3328
686 221 2 -0.82 -11.256 4.96182 -0.914238
687 221 1 0.41 -11.5378 5.93215 -1.04971
688 221 1 0.41 -11.1795 4.76803 0.102167
689 222 2 -0.82 7.23164 6.75537 11.9766
690 222 1 0.41 6.95702 6.25288 -11.4463
691 222 1 0.41 7.81329 7.60394 12.1596
692 223 2 -0.82 11.3527 -10.4677 -5.69796
693 223 1 0.41 11.9618 -11.2058 -5.92418
694 223 1 0.41 11.1672 -10.6558 -4.70844
695 224 2 -0.82 -9.70851 -11.56 -6.48817
696 224 1 0.41 -9.99758 11.8963 -7.05102
697 224 1 0.41 -9.68163 -11.8698 -5.5082
698 225 2 -0.82 6.14496 0.340936 -0.640885
699 225 1 0.41 6.16752 1.34305 -0.938168
700 225 1 0.41 6.23688 -0.31284 -1.404
701 226 2 -0.82 1.81262 -4.27162 -6.63132
702 226 1 0.41 0.77808 -4.27828 -6.69371
703 226 1 0.41 2.15363 -4.32597 -5.68677
704 227 2 -0.82 -6.52173 0.120957 5.31999
705 227 1 0.41 -6.66154 -0.847671 5.50957
706 227 1 0.41 -7.39391 0.582829 5.5338
707 228 2 -0.82 -3.6585 5.01766 -9.15776
708 228 1 0.41 -4.60539 4.59194 -8.99496
709 228 1 0.41 -3.17741 4.52002 -9.86863
710 229 2 -0.82 6.82468 -8.4816 -1.97929
711 229 1 0.41 6.58492 -7.69573 -1.4161
712 229 1 0.41 7.82946 -8.77413 -1.8624
713 230 2 -0.82 9.60555 8.02469 -6.39725
714 230 1 0.41 10.6137 7.97917 -6.19748
715 230 1 0.41 9.32037 9.00065 -6.54401
716 231 2 -0.82 -1.73799 -11.8018 8.11762
717 231 1 0.41 -1.51608 11.483 7.82176
718 231 1 0.41 -2.54679 -11.4581 7.55071
719 232 2 -0.82 -7.03594 -10.9382 -7.04194
720 232 1 0.41 -7.92387 -11.3356 -6.71036
721 232 1 0.41 -6.80849 -11.5119 -7.87026
722 233 2 -0.82 -1.53645 -3.40798 -8.85922
723 233 1 0.41 -0.877245 -3.8915 -9.5048
724 233 1 0.41 -2.51597 -3.76163 -8.93733
725 234 2 -0.82 9.64211 -8.40589 -9.92139
726 234 1 0.41 9.27547 -8.50021 -10.8769
727 234 1 0.41 9.05364 -7.75993 -9.36922
728 235 2 -0.82 11.435 0.180417 -7.5649
729 235 1 0.41 11.1341 -0.825107 -7.40635
730 235 1 0.41 -12.2779 0.00238104 -8.44531
731 236 2 -0.82 4.9755 -5.43898 -1.0266
732 236 1 0.41 4.16819 -5.94044 -0.651137
733 236 1 0.41 4.54718 -4.54858 -1.36627
734 237 2 -0.82 7.39819 2.62624 11.5054
735 237 1 0.41 7.56547 3.26481 10.7435
736 237 1 0.41 6.93464 1.82465 11.0336
737 238 2 -0.82 0.25804 -4.52121 -10.7282
738 238 1 0.41 -0.0888271 -5.43811 -10.9415
739 238 1 0.41 0.187645 -3.89826 -11.5327
740 239 2 -0.82 -2.65222 1.53278 2.64491
741 239 1 0.41 -1.88535 2.03147 3.0039
742 239 1 0.41 -2.90009 0.68036 3.20978
743 240 2 -0.82 0.230902 2.76197 -1.50162