ITEM: TIMESTEP
540000
ITEM: NUMBER OF ATOMS
1429
ITEM: BOX BOUNDS pp pp pp
-12.1247 12.1247
-12.1247 12.1247
-12.1247 12.1247
ITEM: ATOMS id mol type q x y z 
1 1 6 0.09 8.52332 -9.99958 8.67956 
2 1 15 -0.27 8.10145 -9.06985 9.21422 
3 1 6 0.09 7.0377 -9.20644 9.25762 
4 1 6 0.09 8.35328 -9.17927 10.3532 
5 1 8 0.51 8.52903 -7.74114 8.68966 
6 1 9 -0.51 7.74393 -7.01554 8.09194 
7 2 10 -0.47 9.77121 -7.37902 8.83502 
8 2 11 0.31 10.4826 -7.95458 9.26469 
9 2 3 0.07 10.3876 -6.19083 8.28091 
10 2 4 0.09 10.0709 -5.98518 7.30821 
11 2 3 -0.18 10.1996 -4.94223 9.2408 
12 2 6 0.09 9.11183 -4.79975 9.39025 
13 2 6 0.09 10.7894 -5.22779 10.1809 
14 2 5 -0.21 10.876 -3.56683 8.8596 
15 2 6 0.09 10.7984 -2.92431 9.75331 
16 2 6 0.09 11.9379 -3.55089 8.48083 
17 2 36 0.75 10.1913 -2.71108 7.73867 
18 2 37 -0.55 9.2725 -3.04841 7.0358 
19 2 14 -0.61 10.8194 -1.53776 7.48493 
20 2 8 0.51 11.7961 -6.55099 8.3012 
21 2 9 -0.51 12.1057 -7.48455 9.04951 
22 3 10 -0.47 -11.5306 -6.00187 7.41489 
23 3 11 0.31 -11.8682 -5.34809 6.70086 
24 3 15 -0.11 -10.1388 -6.41143 7.37773 
25 3 6 0.09 -9.59735 -5.78415 6.60918 
26 3 6 0.09 -9.63153 -6.11603 8.33809 
27 3 6 0.09 -10.0345 -7.43278 7.19499 
28 4 38 -0.82 -4.555 -0.594365 -0.0833714 
29 4 39 0.41 -4.95244 0.103182 -0.722141 
30 4 39 0.41 -5.36405 -0.940601 0.449759 
31 257 39 0.41 -1.79151 7.7556 -2.71376 
32 5 38 -0.82 7.40809 -10.243 2.30082 
33 5 39 0.41 7.31008 -9.40888 2.91918 
34 5 39 0.41 7.12359 -10.0051 1.35037 
35 6 38 -0.82 -7.37033 -0.748107 -5.99774 
36 6 39 0.41 -8.1972 -1.1256 -5.44999 
37 6 39 0.41 -7.52198 -1.11583 -6.95206 
38 7 38 -0.82 2.79641 -8.44465 -4.65369 
39 7 39 0.41 3.20002 -9.36832 -4.43874 
40 7 39 0.41 2.07201 -8.55846 -5.41106 
41 8 38 -0.82 1.48703 -10.0904 3.568 
42 8 39 0.41 1.15246 -9.44794 2.86044 
43 8 39 0.41 2.26599 -9.56162 3.9538 
44 9 38 -0.82 5.97523 6.58715 0.244797 
45 9 39 0.41 5.7348 6.15986 1.15915 
46 9 39 0.41 5.63362 5.95579 -0.468277 
47 10 38 -0.82 -0.372843 10.3013 3.65821 
48 10 39 0.41 -0.384243 10.0616 4.65128 
49 10 39 0.41 -1.29418 10.5338 3.20652 
50 11 38 -0.82 -4.26676 9.25148 -5.87951 
51 11 39 0.41 -3.28689 9.51361 -5.69166 
52 11 39 0.41 -4.84454 9.34148 -4.98208 
53 12 38 -0.82 10.749 -8.1621 -11.4986 
54 12 39 0.41 11.0175 -8.33185 -10.5098 
55 12 39 0.41 9.74927 -7.90347 -11.4114 
56 13 38 -0.82 -11.76 -4.66199 -2.36628 
57 13 39 0.41 -10.7804 -4.92015 -2.59541 
58 13 39 0.41 11.9489 -4.54462 -3.2428 
59 14 38 -0.82 -10.1228 3.04226 -1.97279 
60 14 39 0.41 -9.10568 2.90948 -1.85055 
61 14 39 0.41 -10.6177 2.37556 -1.35964 
62 15 38 -0.82 -10.6622 5.2778 -5.6379 
63 15 39 0.41 -10.9346 6.20928 -5.92491 
64 15 39 0.41 -10.7556 4.77055 -6.49343 
65 16 38 -0.82 -8.49193 -5.65708 -1.94434 
66 16 39 0.41 -7.79968 -5.42019 -1.1906 
67 16 39 0.41 -8.37785 -4.92033 -2.67594 
68 17 38 -0.82 -9.89322 0.627636 8.5775 
69 17 39 0.41 -9.41978 1.40137 8.9781 
70 17 39 0.41 -9.69175 -0.0523885 9.30339 
71 18 38 -0.82 -6.75756 5.77705 -3.48785 
72 18 39 0.41 -7.48497 6.35566 -3.95622 
73 18 39 0.41 -6.62611 6.21536 -2.58083 
74 19 38 -0.82 -10.2385 -10.4474 -0.752906 
75 19 39 0.41 -9.85022 -9.60462 -1.24659 
76 19 39 0.41 -11.178 -10.1084 -0.541828 
77 20 38 -0.82 1.9956 9.20922 -9.92674 
78 20 39 0.41 2.17223 9.77945 -10.7743 
79 20 39 0.41 1.72317 8.33316 -10.3517 
80 21 38 -0.82 -8.19568 6.94282 8.69915 
81 21 39 0.41 -7.98839 7.92396 8.9417 
82 21 39 0.41 -7.27931 6.51738 8.57707 
83 22 38 -0.82 -7.97432 5.36561 11.2586 
84 22 39 0.41 -7.54043 5.80652 10.4448 
85 22 39 0.41 -8.77169 5.97688 11.619 
86 23 38 -0.82 -3.48746 -2.16376 6.212 
87 23 39 0.41 -2.40318 -2.23406 6.1221 
88 23 39 0.41 -3.8574 -2.0211 5.26168 
89 24 38 -0.82 10.0207 5.70256 -8.06459 
90 24 39 0.41 10.5944 6.21173 -8.81974 
91 24 39 0.41 10.3322 4.71858 -8.01594 
92 25 38 -0.82 -10.9726 -7.60429 -4.10635 
93 25 39 0.41 -10.4382 -6.7662 -4.44915 
94 25 39 0.41 -11.7416 -7.39515 -3.42158 
95 26 38 -0.82 9.06427 -8.21688 -3.21033 
96 26 39 0.41 9.93171 -8.3776 -2.74793 
97 26 39 0.41 8.59078 -7.36965 -2.95102 
98 27 38 -0.82 2.73141 2.80685 -11.286 
99 27 39 0.41 2.5047 3.43022 -12.117 
100 27 39 0.41 3.29439 1.9993 -11.6649 
101 28 38 -0.82 -6.70975 4.74138 1.06368 
102 28 39 0.41 -6.61446 5.4316 1.85618 
103 28 39 0.41 -6.36818 3.89374 1.5577 
104 29 38 -0.82 1.96321 9.12123 -1.87624 
105 29 39 0.41 2.92884 9.29843 -1.47894 
106 29 39 0.41 1.39947 8.74797 -1.07209 
107 30 38 -0.82 -12.0558 1.35188 -0.81966 
108 30 39 0.41 11.5931 0.832437 -1.50251 
109 30 39 0.41 11.5547 1.53779 -0.0411891 
110 31 38 -0.82 -8.64417 -3.62776 -10.539 
111 31 39 0.41 -9.51337 -3.73891 -11.0417 
112 31 39 0.41 -8.09433 -4.47693 -10.4918 
113 32 38 -0.82 -8.34194 1.99988 -7.66028 
114 32 39 0.41 -7.45088 2.50354 -7.65016 
115 32 39 0.41 -8.81974 1.91844 -6.74926 
116 33 38 -0.82 -4.6181 5.81143 -9.96501 
117 33 39 0.41 -5.32988 6.42822 -9.5662 
118 33 39 0.41 -3.7351 6.34517 -9.89955 
119 34 38 -0.82 5.99625 1.93243 -6.69868 
120 34 39 0.41 5.57872 1.02868 -6.52795 
121 34 39 0.41 5.95636 2.4402 -5.81913 
122 35 38 -0.82 -10.4699 5.02585 2.75054 
123 35 39 0.41 -10.5207 5.85068 2.12231 
124 35 39 0.41 -10.3727 5.56669 3.65843 
125 36 38 -0.82 -3.81998 1.10275 1.86419 
126 36 39 0.41 -4.01376 0.566057 1.01487 
127 36 39 0.41 -2.80181 1.26281 1.78269 
128 37 38 -0.82 -7.59978 7.36793 5.60334 
129 37 39 0.41 -7.99273 7.27018 6.55028 
130 37 39 0.41 -6.74983 7.91953 5.67001 
131 38 38 -0.82 7.2203 -1.20536 -7.72367 
132 38 39 0.41 7.52634 -1.81057 -6.9566 
133 38 39 0.41 7.58431 -0.242377 -7.585 
134 39 38 -0.82 -4.381 8.45839 -0.497332 
135 39 39 0.41 -3.99682 7.52059 -0.266364 
136 39 39 0.41 -4.86964 8.85845 0.262167 
137 40 38 -0.82 -2.29577 -2.23817 -8.72782 
138 40 39 0.41 -1.60397 -1.6447 -8.27891 
139 40 39 0.41 -2.34883 -1.83448 -9.71233 
140 41 38 -0.82 8.23111 -6.56014 -11.2223 
141 41 39 0.41 7.40099 -5.91654 -11.2334 
142 41 39 0.41 8.79689 -6.3588 -10.3626 
143 42 38 -0.82 -12.0675 3.91766 -3.7297 
144 42 39 0.41 -11.4997 4.27475 -4.55324 
145 42 39 0.41 -11.3452 3.62699 -3.05937 
146 43 38 -0.82 9.92048 -0.341805 -8.51326 
147 43 39 0.41 10.5694 -1.06503 -8.23048 
148 43 39 0.41 9.33846 -0.149957 -7.67878 
149 44 38 -0.82 -1.53406 -2.70588 11.0058 
150 44 39 0.41 -1.2081 -2.9713 11.949 
151 44 39 0.41 -2.50201 -2.31746 10.9427 
152 45 38 -0.82 -5.58318 -5.82906 -7.71297 
153 45 39 0.41 -6.1062 -5.63877 -8.52989 
154 45 39 0.41 -5.36253 -4.94735 -7.19585 
155 46 38 -0.82 -2.20209 -10.594 -2.34651 
156 46 39 0.41 -3.1824 -10.9086 -2.59899 
157 46 39 0.41 -1.90435 -9.89421 -3.01026 
158 47 38 -0.82 1.21056 -9.51529 -6.65949 
159 47 39 0.41 1.07901 -10.5454 -6.71157 
160 47 39 0.41 0.30093 -8.96683 -6.467 
161 48 38 -0.82 4.23573 9.02319 -3.82176 
162 48 39 0.41 3.33002 8.78579 -3.41749 
163 48 39 0.41 4.54981 10.0125 -3.67425 
164 49 38 -0.82 2.41864 6.7713 2.23888 
165 49 39 0.41 3.337 6.47123 2.68736 
166 49 39 0.41 1.6601 6.66983 2.91587 
167 50 38 -0.82 -11.2953 1.92821 -11.6902 
168 50 39 0.41 12.0517 2.17905 -11.2811 
169 50 39 0.41 -11.3576 0.891096 -11.6871 
170 51 38 -0.82 -8.02621 -2.0374 -0.142687 
171 51 39 0.41 -8.59649 -1.21805 -0.33965 
172 51 39 0.41 -8.33719 -2.44165 0.728526 
173 52 38 -0.82 10.1776 0.810445 -2.85699 
174 52 39 0.41 9.34483 0.528778 -2.33974 
175 52 39 0.41 9.84359 1.55502 -3.47424 
176 53 38 -0.82 5.02505 -7.34443 11.1484 
177 53 39 0.41 4.84066 -7.97754 10.3804 
178 53 39 0.41 5.75034 -7.69979 11.7521 
179 54 38 -0.82 2.48611 10.7725 11.9164 
180 54 39 0.41 1.71809 11.448 11.8795 
181 54 39 0.41 3.35345 11.2935 12.1068 
182 55 38 -0.82 7.93303 11.2367 -7.88996 
183 55 39 0.41 8.04061 10.2488 -7.61291 
184 55 39 0.41 7.35698 11.1538 -8.78889 
185 56 38 -0.82 -1.84494 7.04644 3.66397 
186 56 39 0.41 -1.74815 6.72416 2.73245 
187 56 39 0.41 -0.937375 7.02694 4.04688 
188 57 38 -0.82 1.22259 -5.43682 -5.7221 
189 57 39 0.41 1.49166 -6.05559 -6.52689 
190 57 39 0.41 1.62146 -5.69723 -4.84938 
191 58 38 -0.82 -9.44103 -0.526754 -8.43414 
192 58 39 0.41 -8.75991 -1.23481 -8.77601 
193 58 39 0.41 -8.99781 0.329197 -8.15533 
194 59 38 -0.82 11.8356 4.31616 8.2795 
195 59 39 0.41 -12.0436 3.60528 7.60173 
196 59 39 0.41 -11.7772 5.08091 8.14301 
197 60 38 -0.82 -6.5266 0.769747 -1.25544 
198 60 39 0.41 -6.9218 1.4319 -1.95401 
199 60 39 0.41 -7.30917 0.290795 -0.740344 
200 61 38 -0.82 1.76964 7.59912 8.14906 
201 61 39 0.41 2.36442 8.15995 8.76493 
202 61 39 0.41 2.20348 7.5694 7.21754 
203 62 38 -0.82 -4.345 0.375176 -3.11565 
204 62 39 0.41 -3.8461 1.05496 -3.61058 
205 62 39 0.41 -4.99834 0.833898 -2.48465 
206 63 38 -0.82 5.83444 3.15644 -10.9414 
207 63 39 0.41 5.39014 2.22493 -10.9055 
208 63 39 0.41 6.10594 3.23134 -11.9483 
209 64 38 -0.82 10.6473 8.14705 5.93303 
210 64 39 0.41 10.376 9.08207 5.64509 
211 64 39 0.41 11.054 7.64525 5.09978 
212 65 38 -0.82 6.21735 -8.59217 -10.9844 
213 65 39 0.41 6.9566 -7.91602 -10.8871 
214 65 39 0.41 5.80013 -9.0844 -10.1455 
215 66 38 -0.82 2.49498 -7.5961 4.14629 
216 66 39 0.41 2.88423 -6.7921 3.66772 
217 66 39 0.41 1.50288 -7.49316 4.39654 
218 67 38 -0.82 6.25602 10.9004 -4.29352 
219 67 39 0.41 6.25337 11.7641 -4.84917 
220 67 39 0.41 6.48256 11.0884 -3.32641 
221 68 38 -0.82 -6.09542 -0.914895 7.48323 
222 68 39 0.41 -6.84584 -1.48054 7.13625 
223 68 39 0.41 -5.23778 -1.21629 7.05647 
224 69 38 -0.82 -11.0357 2.51362 6.47991 
225 69 39 0.41 -10.5492 1.82536 7.08837 
226 69 39 0.41 -11.4839 2.08206 5.68309 
227 70 38 -0.82 7.90619 0.193681 -1.56739 
228 70 39 0.41 7.44473 1.08748 -1.21688 
229 70 39 0.41 7.55387 -0.00877088 -2.50397 
230 71 38 -0.82 -5.71513 -8.1555 -1.20207 
231 71 39 0.41 -5.94511 -9.07631 -0.779827 
232 71 39 0.41 -6.17566 -7.4053 -0.687015 
233 72 38 -0.82 1.02386 7.50732 -0.00261916 
234 72 39 0.41 0.916904 6.56606 -0.361156 
235 72 39 0.41 1.67479 7.42804 0.773021 
236 73 38 -0.82 -7.46724 -11.8291 -11.3502 
237 73 39 0.41 -8.32365 -11.4993 -11.82 
238 73 39 0.41 -6.76051 -11.0165 -11.0848 
239 74 38 -0.82 -3.43443 -11.2439 8.95038 
240 74 39 0.41 -3.07745 -10.6269 8.18295 
241 74 39 0.41 -4.30267 -11.7199 8.7727 
242 75 38 -0.82 5.46896 -9.67676 5.14341 
243 75 39 0.41 4.80492 -10.0195 4.40536 
244 75 39 0.41 5.92018 -8.8654 4.73226 
245 76 38 -0.82 -10.397 10.8445 -11.1283 
246 76 39 0.41 -9.87792 10.4942 -10.321 
247 76 39 0.41 -9.86673 10.3984 -11.9165 
248 77 38 -0.82 2.7776 -9.37525 -0.998713 
249 77 39 0.41 3.28118 -8.50018 -0.920811 
250 77 39 0.41 1.71092 -9.36923 -1.1241 
251 78 38 -0.82 -1.64825 9.05001 11.8269 
252 78 39 0.41 -1.32707 9.9417 11.4449 
253 78 39 0.41 -2.02718 8.46568 11.083 
254 79 38 -0.82 -6.54342 -5.84998 0.012067 
255 79 39 0.41 -6.06328 -4.93992 -0.167912 
256 79 39 0.41 -7.03882 -5.85714 0.90018 
257 80 38 -0.82 -11.0022 -11.1362 -12.0183 
258 80 39 0.41 -11.9641 -11.0411 11.9287 
259 80 39 0.41 -10.8361 -12.0816 -11.6119 
260 81 38 -0.82 3.2179 -9.48561 -10.9571 
261 81 39 0.41 2.24385 -9.18679 -10.802 
262 81 39 0.41 3.69102 -8.84269 -11.6202 
263 82 38 -0.82 1.91455 -6.89176 -8.01934 
264 82 39 0.41 2.16181 -7.86243 -7.8368 
265 82 39 0.41 1.42365 -7.08249 -8.94613 
266 83 38 -0.82 0.795605 -7.50281 -10.5351 
267 83 39 0.41 1.10691 -7.0409 -11.3677 
268 83 39 0.41 0.0511489 -8.11391 -10.7111 
269 84 38 -0.82 10.8301 -10.6642 11.3526 
270 84 39 0.41 10.7991 -9.68446 11.2381 
271 84 39 0.41 9.95033 -11.0059 11.7671 
272 85 38 -0.82 7.83941 -8.50802 -7.02323 
273 85 39 0.41 6.9218 -8.07457 -6.96781 
274 85 39 0.41 8.53693 -7.94166 -6.5225 
275 86 38 -0.82 10.5867 -10.514 -5.12654 
276 86 39 0.41 9.63701 -10.7073 -5.41482 
277 86 39 0.41 10.9218 -11.3013 -4.56494 
278 87 38 -0.82 -3.80816 -4.99041 5.09248 
279 87 39 0.41 -4.14755 -4.17965 5.59312 
280 87 39 0.41 -4.50419 -5.67212 5.37781 
281 88 38 -0.82 -6.1668 3.65911 -10.1889 
282 88 39 0.41 -5.58669 4.52013 -10.1216 
283 88 39 0.41 -7.10879 3.89778 -10.3608 
284 89 38 -0.82 -4.66865 11.064 11.5628 
285 89 39 0.41 -5.27283 10.2278 11.5223 
286 89 39 0.41 -4.40538 11.1945 -11.6995 
287 90 38 -0.82 -9.14576 3.35119 1.02675 
288 90 39 0.41 -8.26133 3.84298 0.951927 
289 90 39 0.41 -9.70198 3.86996 1.69944 
290 91 38 -0.82 -2.93451 -8.41565 -0.762623 
291 91 39 0.41 -2.64419 -8.92774 -1.62935 
292 91 39 0.41 -3.95647 -8.3922 -0.72721 
293 92 38 -0.82 -5.03198 -0.174682 -9.5286 
294 92 39 0.41 -4.07195 -0.530751 -9.62756 
295 92 39 0.41 -4.99128 0.726894 -8.97611 
296 93 38 -0.82 -4.80913 8.58086 5.86537 
297 93 39 0.41 -5.08181 9.44449 6.33375 
298 93 39 0.41 -4.53964 8.84227 4.89799 
299 94 38 -0.82 -4.09682 -11.0193 -5.67387 
300 94 39 0.41 -4.82329 -10.2483 -5.74153 
301 94 39 0.41 -4.33328 -11.5174 -4.78576 
302 95 38 -0.82 -9.17385 -9.96406 2.78449 
303 95 39 0.41 -9.36878 -9.03571 2.36973 
304 95 39 0.41 -10.0387 -10.3434 3.2638 
305 96 38 -0.82 11.5411 7.55968 1.29745 
306 96 39 0.41 -12.0847 6.96128 0.783888 
307 96 39 0.41 10.5482 7.39858 1.11553 
308 97 38 -0.82 -0.684371 -3.74641 -10.8429 
309 97 39 0.41 -1.36534 -4.36827 -10.3933 
310 97 39 0.41 -0.194621 -3.40359 -10.034 
311 98 38 -0.82 4.74923 4.52766 -1.6198 
312 98 39 0.41 4.64842 4.34029 -2.62761 
313 98 39 0.41 3.94658 4.14713 -1.0697 
314 99 38 -0.82 -6.46796 11.3657 2.28297 
315 99 39 0.41 -5.70441 12.0471 2.37398 
316 99 39 0.41 -7.22272 11.7583 1.6979 
317 100 38 -0.82 -0.771472 8.63323 -7.8007 
318 100 39 0.41 -1.05446 9.28218 -7.0555 
319 100 39 0.41 -0.0320601 8.03661 -7.4338 
320 101 38 -0.82 2.112 5.93673 -2.62524 
321 101 39 0.41 2.71959 5.60281 -3.31321 
322 101 39 0.41 2.38407 6.91638 -2.37856 
323 102 38 -0.82 -11.4452 -6.78444 -9.40039 
324 102 39 0.41 -11.696 -7.62855 -8.86903 
325 102 39 0.41 -11.0498 -6.97601 -10.3239 
326 103 38 -0.82 12.0055 8.62246 8.19762 
327 103 39 0.41 11.5126 9.43421 8.66804 
328 103 39 0.41 11.4672 8.59307 7.24463 
329 104 38 -0.82 -2.71191 -9.69128 6.7652 
330 104 39 0.41 -3.49685 -9.39557 6.24795 
331 104 39 0.41 -1.86713 -9.33387 6.25362 
332 105 38 -0.82 8.93676 10.0743 -4.48466 
333 105 39 0.41 8.99824 9.30086 -3.84586 
334 105 39 0.41 7.9355 10.316 -4.46105 
335 106 38 -0.82 4.91337 -4.21325 6.22016 
336 106 39 0.41 5.44913 -3.3333 6.4495 
337 106 39 0.41 4.47205 -4.53108 7.12762 
338 107 38 -0.82 2.88111 3.40759 -0.267448 
339 107 39 0.41 2.93777 2.42616 0.103782 
340 107 39 0.41 1.86873 3.5624 -0.538353 
341 108 38 -0.82 9.90261 -6.17711 -9.05516 
342 108 39 0.41 10.8766 -6.39217 -9.29484 
343 108 39 0.41 9.76458 -6.39361 -8.04446 
344 109 38 -0.82 -7.56156 10.4291 -3.45392 
345 109 39 0.41 -7.43474 10.288 -4.45014 
346 109 39 0.41 -8.06511 11.2265 -3.12838 
347 110 38 -0.82 -6.12398 -9.01685 -5.41088 
348 110 39 0.41 -6.13232 -8.1705 -4.81621 
349 110 39 0.41 -6.68198 -8.89151 -6.28545 
350 111 38 -0.82 3.90054 0.113432 -3.33452 
351 111 39 0.41 3.62186 1.09456 -3.58933 
352 111 39 0.41 3.25981 -0.325757 -2.69749 
353 112 38 -0.82 -11.226 -3.94262 2.55797 
354 112 39 0.41 -12.0971 -3.66844 2.09035 
355 112 39 0.41 -10.7608 -4.4839 1.83223 
356 113 38 -0.82 10.5303 11.0852 3.3124 
357 113 39 0.41 9.92946 10.978 4.14873 
358 113 39 0.41 10.0145 11.1517 2.45524 
359 114 38 -0.82 3.625 -0.68405 6.60848 
360 114 39 0.41 4.33285 -0.255449 7.21107 
361 114 39 0.41 2.94611 0.0266785 6.37437 
362 115 38 -0.82 4.39418 -11.9349 3.10909 
363 115 39 0.41 4.14607 11.3817 2.81463 
364 115 39 0.41 4.53276 -11.2419 2.32383 
365 116 38 -0.82 -2.26097 -5.39847 -9.40682 
366 116 39 0.41 -2.78516 -6.08337 -9.92452 
367 116 39 0.41 -2.27112 -5.71467 -8.4267 
368 117 38 -0.82 -6.74613 3.8717 7.29306 
369 117 39 0.41 -7.74871 3.94482 7.02866 
370 117 39 0.41 -6.56829 4.59061 8.00707 
371 118 38 -0.82 -6.93131 -10.0933 -2.99209 
372 118 39 0.41 -6.75384 -9.81882 -3.94514 
373 118 39 0.41 -6.75161 -9.35693 -2.28394 
374 119 38 -0.82 6.62504 8.05392 7.62327 
375 119 39 0.41 5.83398 7.39109 7.70148 
376 272 39 0.41 -11.1389 -9.2692 -6.52826 
377 120 38 -0.82 11.9831 1.60899 4.07713 
378 120 39 0.41 11.5572 2.51986 3.87761 
379 120 39 0.41 -11.5399 1.40651 3.40134 
380 121 38 -0.82 5.2771 9.69268 -6.78081 
381 121 39 0.41 6.1114 9.23872 -7.19581 
382 121 39 0.41 5.40188 9.70466 -5.79255 
383 122 38 -0.82 7.04014 -7.86453 3.87901 
384 122 39 0.41 8.03806 -7.54713 3.65316 
385 122 39 0.41 6.82409 -7.13972 4.55861 
386 123 38 -0.82 -9.61112 8.9564 3.58323 
387 123 39 0.41 -9.57952 8.63451 2.58188 
388 123 39 0.41 -9.2412 8.16509 4.10519 
389 124 38 -0.82 11.0654 3.4556 0.814778 
390 124 39 0.41 10.6608 3.43114 1.77377 
391 124 39 0.41 11.9841 3.82001 0.931433 
392 125 38 -0.82 3.30307 -1.35876 -10.7935 
393 125 39 0.41 3.72509 -1.49198 -9.83076 
394 125 39 0.41 2.30199 -1.41845 -10.6134 
395 126 38 -0.82 -3.66298 11.1883 -10.1074 
396 126 39 0.41 -4.12118 11.0736 -9.19342 
397 126 39 0.41 -3.1637 10.3085 -10.2921 
398 127 38 -0.82 -11.8523 4.97668 10.9152 
399 127 39 0.41 -11.5749 4.13813 11.3986 
400 127 39 0.41 -12.0962 4.7351 9.92047 
401 128 38 -0.82 0.452553 3.46171 -5.02371 
402 128 39 0.41 0.085349 4.40512 -5.23734 
403 128 39 0.41 -0.342254 2.95802 -4.70631 
404 129 38 -0.82 -0.275346 2.64126 9.37442 
405 129 39 0.41 -1.02397 2.76723 10.123 
406 129 39 0.41 -0.879941 2.29596 8.60647 
407 130 38 -0.82 -2.35507 4.93588 5.38622 
408 130 39 0.41 -2.28951 5.54855 4.55071 
409 130 39 0.41 -1.49134 4.47819 5.59096 
410 131 38 -0.82 9.8496 6.94508 -5.77544 
411 131 39 0.41 10.0641 6.39491 -6.57575 
412 131 39 0.41 10.519 7.7019 -5.69264 
413 132 38 -0.82 -6.49691 -6.96139 10.6331 
414 132 39 0.41 -5.93315 -7.68235 10.1876 
415 132 39 0.41 -7.43039 -7.3559 10.8549 
416 133 38 -0.82 0.158432 9.34091 6.04216 
417 133 39 0.41 -0.384185 10.0385 6.50884 
418 133 39 0.41 0.447364 8.61111 6.76865 
419 134 38 -0.82 -2.48383 3.4029 -8.1847 
420 134 39 0.41 -2.73242 4.077 -7.48987 
421 134 39 0.41 -2.05486 3.93508 -8.9517 
422 135 38 -0.82 -9.68852 -9.83957 -9.9142 
423 135 39 0.41 -10.1296 -9.88866 -8.96453 
424 135 39 0.41 -10.3379 -10.2249 -10.5911 
425 136 38 -0.82 3.82287 -5.26122 8.3906 
426 136 39 0.41 3.8384 -5.16142 9.36233 
427 136 39 0.41 3.72201 -6.23309 8.06095 
428 137 38 -0.82 1.50205 11.8639 -0.353815 
429 137 39 0.41 1.61396 11.778 0.643071 
430 137 39 0.41 2.38643 12.0766 -0.792716 
431 138 38 -0.82 5.79362 6.95893 -5.65823 
432 138 39 0.41 5.36501 7.84524 -5.33095 
433 138 39 0.41 5.09609 6.20686 -5.57007 
434 139 38 -0.82 1.26444 -4.1281 4.39685 
435 139 39 0.41 1.62661 -4.06869 5.34288 
436 139 39 0.41 0.283553 -4.43604 4.2764 
437 140 38 -0.82 2.2653 -3.51423 10.0958 
438 140 39 0.41 2.5558 -3.53831 9.12148 
439 140 39 0.41 1.62694 -2.70076 10.2237 
440 141 38 -0.82 5.82082 -5.06539 -11.3286 
441 141 39 0.41 5.22891 -4.30506 -11.5536 
442 141 39 0.41 5.55883 -5.78917 -11.9684 
443 142 38 -0.82 -7.28868 -9.80751 4.64486 
444 142 39 0.41 -7.61554 -10.0166 3.69328 
445 142 39 0.41 -8.00844 -10.3101 5.16752 
446 143 38 -0.82 11.2157 -9.12044 -8.7891 
447 143 39 0.41 11.5431 -9.11489 -7.77069 
448 143 39 0.41 10.3689 -9.72966 -8.8521 
449 144 38 -0.82 -6.55032 8.8951 1.343 
450 144 39 0.41 -6.38774 9.82469 1.78397 
451 144 39 0.41 -6.50588 8.14978 2.04648 
452 145 38 -0.82 -6.90275 -4.42684 9.80818 
453 145 39 0.41 -6.66744 -5.38191 10.0123 
454 145 39 0.41 -6.08383 -3.86681 9.70419 
455 146 38 -0.82 9.0892 7.2826 8.93253 
456 146 39 0.41 9.47983 6.5281 8.38499 
457 146 39 0.41 8.32812 7.7877 8.50662 
458 147 38 -0.82 7.1383 -5.06944 -5.3605 
459 147 39 0.41 6.65483 -5.61202 -4.64267 
460 147 39 0.41 8.00055 -5.61102 -5.55236 
461 148 38 -0.82 -9.24714 -8.26806 -2.23007 
462 148 39 0.41 -9.78633 -8.3244 -3.10404 
463 148 39 0.41 -8.93377 -7.28327 -2.09824 
464 149 38 -0.82 -3.35564 9.58672 9.11834 
465 149 39 0.41 -3.26507 8.58189 9.17715 
466 149 39 0.41 -3.93853 9.88506 9.92568 
467 150 38 -0.82 3.0211 -0.0234988 9.46183 
468 150 39 0.41 3.97202 -0.413991 9.22197 
469 150 39 0.41 2.38683 -0.751394 9.84855 
470 151 38 -0.82 4.86774 -12.1028 9.72571 
471 151 39 0.41 4.87173 -11.9177 10.7561 
472 151 39 0.41 3.89173 12.0755 9.36524 
473 152 38 -0.82 -1.61167 1.74761 -4.1862 
474 152 39 0.41 -1.88441 2.49601 -3.5077 
475 152 39 0.41 -1.4516 0.880467 -3.66449 
476 153 38 -0.82 8.12876 7.31843 5.45784 
477 153 39 0.41 9.14926 7.43841 5.70554 
478 153 39 0.41 8.07328 6.30241 5.44286 
479 154 38 -0.82 1.72813 -6.39686 1.23862 
480 154 39 0.41 0.985307 -5.71133 1.39361 
481 154 39 0.41 1.20715 -7.27958 1.43391 
482 155 38 -0.82 -5.4006 -10.0812 -10.9516 
483 155 39 0.41 -4.68072 -10.0003 -10.2943 
484 155 39 0.41 -5.01889 -10.0848 -11.9078 
485 156 38 -0.82 1.22151 4.76551 -9.3622 
486 156 39 0.41 1.7755 4.02914 -9.79641 
487 156 39 0.41 0.93203 5.36667 -10.1811 
488 157 38 -0.82 -5.04773 3.49133 10.3834 
489 157 39 0.41 -5.36553 2.78943 9.6945 
490 157 39 0.41 -4.7054 3.12304 11.2902 
491 158 38 -0.82 -2.60034 6.98485 9.73795 
492 158 39 0.41 -3.03956 6.50158 8.94413 
493 158 39 0.41 -2.67152 6.34558 10.5705 
494 159 38 -0.82 -1.09077 -9.36798 -10.8835 
495 159 39 0.41 -1.69854 -9.77226 -10.2074 
496 159 39 0.41 -0.899892 -10.216 -11.3558 
497 160 38 -0.82 -2.81057 -2.34105 1.34637 
498 160 39 0.41 -3.35651 -1.8973 0.603348 
499 160 39 0.41 -2.68081 -3.24962 1.06771 
500 161 38 -0.82 9.6493 -6.49502 -5.80774 
501 161 39 0.41 10.4175 -7.1518 -5.83559 
502 161 39 0.41 10.1008 -5.65505 -5.48201 
503 162 38 -0.82 -4.82015 3.67576 -1.04037 
504 162 39 0.41 -5.6024 3.42528 -1.71037 
505 162 39 0.41 -5.24662 3.96849 -0.114702 
506 163 38 -0.82 -7.40442 -3.65866 -3.71463 
507 163 39 0.41 -8.03144 -2.87355 -4.03522 
508 163 39 0.41 -7.42837 -4.43693 -4.41247 
509 164 38 -0.82 1.19984 7.19137 -6.82214 
510 164 39 0.41 1.83286 6.45422 -7.10578 
511 164 39 0.41 1.77852 8.04582 -6.71927 
512 165 38 -0.82 11.4456 -4.29055 -5.0643 
513 165 39 0.41 -12.0584 -4.62011 -5.67406 
514 165 39 0.41 11.2887 -3.27422 -5.20528 
515 166 38 -0.82 9.40452 -6.95061 3.69477 
516 166 39 0.41 9.3657 -6.02942 4.19883 
517 166 39 0.41 10.3107 -7.17341 3.34922 
518 167 38 -0.82 -8.60838 2.34241 10.4336 
519 167 39 0.41 -8.05543 1.67824 10.9852 
520 167 39 0.41 -8.65119 3.25805 10.8955 
521 168 38 -0.82 2.49651 2.51441 -3.71717 
522 168 39 0.41 1.68129 2.9495 -4.21826 
523 168 39 0.41 2.09954 2.1286 -2.85531 
524 169 38 -0.82 8.77301 4.12602 -0.429554 
525 169 39 0.41 9.67173 3.93896 -0.00664649 
526 169 39 0.41 9.02642 4.67601 -1.22325 
527 170 38 -0.82 3.08129 -11.5835 -4.53759 
528 170 39 0.41 2.33536 11.9893 -4.45778 
529 170 39 0.41 3.52268 -11.6405 -5.40549 
530 171 38 -0.82 1.19759 1.3995 1.33056 
531 171 39 0.41 0.655084 0.52048 1.34838 
532 171 39 0.41 0.709829 2.09508 1.79792 
533 172 38 -0.82 3.77847 7.31097 6.1531 
534 172 39 0.41 4.33616 6.61012 6.77109 
535 172 39 0.41 4.27138 7.9466 5.4657 
536 173 38 -0.82 10.692 -10.1196 2.3169 
537 173 39 0.41 9.74907 -10.3331 2.55407 
538 173 39 0.41 11.4083 -10.4964 2.98725 
539 174 38 -0.82 11.6025 -8.3564 -6.2641 
540 174 39 0.41 -12.0258 -7.94269 -5.51437 
541 174 39 0.41 11.2322 -9.16977 -5.75224 
542 175 38 -0.82 -11.4369 10.6825 4.98562 
543 175 39 0.41 -10.8781 10.0704 4.41197 
544 175 39 0.41 11.985 10.8239 4.41063 
545 176 38 -0.82 -11.5792 -1.00049 -12.0743 
546 176 39 0.41 11.9245 -0.74748 11.4401 
547 176 39 0.41 -11.9785 -1.76566 -11.4966 
548 177 38 -0.82 -2.30298 3.67033 -2.31754 
549 177 39 0.41 -3.23988 3.60667 -1.86465 
550 177 39 0.41 -2.28672 4.63546 -2.64338 
551 178 38 -0.82 -4.73878 9.6948 -3.09195 
552 178 39 0.41 -4.51171 9.16304 -2.23118 
553 178 39 0.41 -5.738 9.95233 -2.98404 
554 179 38 -0.82 11.3085 -5.93948 0.139915 
555 179 39 0.41 10.3001 -5.81979 0.208315 
556 179 39 0.41 11.5514 -6.5425 0.967246 
557 180 38 -0.82 -4.90636 -1.70891 -5.04529 
558 180 39 0.41 -5.65137 -1.33262 -5.50836 
559 180 39 0.41 -4.81411 -1.205 -4.18434 
560 181 38 -0.82 -6.85193 6.68076 -0.859332 
561 181 39 0.41 -7.10658 5.95128 -0.175703 
562 181 39 0.41 -6.42271 7.41928 -0.359414 
563 182 38 -0.82 2.63006 5.06766 5.22936 
564 182 39 0.41 3.27811 4.41919 5.75843 
565 182 39 0.41 2.98274 6.02623 5.44449 
566 183 38 -0.82 3.91044 0.293103 0.398284 
567 183 39 0.41 4.08682 -0.718078 0.378592 
568 183 39 0.41 3.54807 0.451085 -0.502506 
569 184 38 -0.82 -7.98482 -8.67936 -7.28355 
570 184 39 0.41 -7.78188 -8.29149 -8.24012 
571 184 39 0.41 -8.83044 -9.27067 -7.27061 
572 185 38 -0.82 4.08429 -9.74297 1.57498 
573 185 39 0.41 3.30251 -10.1945 1.14419 
574 185 39 0.41 4.75574 -9.62789 0.809809 
575 186 38 -0.82 -1.83833 -10.7102 1.29341 
576 186 39 0.41 -1.03074 -10.5462 1.92594 
577 186 39 0.41 -2.1583 -9.89772 0.763839 
578 187 38 -0.82 -6.28164 -10.7069 -0.0154798 
579 187 39 0.41 -7.05624 -11.1878 0.541462 
580 187 39 0.41 -5.419 -10.8482 0.525732 
581 188 38 -0.82 -0.000656525 -3.12563 -0.247278 
582 188 39 0.41 0.0776682 -2.16836 -0.420913 
583 188 39 0.41 0.353253 -3.73975 -0.994941 
584 189 38 -0.82 -2.9756 6.88082 -6.98757 
585 189 39 0.41 -3.69081 6.72788 -6.27232 
586 189 39 0.41 -2.88601 7.90904 -7.03126 
587 190 38 -0.82 -9.00725 7.9483 1.11586 
588 190 39 0.41 -8.14119 8.47222 0.849262 
589 190 39 0.41 -9.60291 7.87983 0.338278 
590 191 38 -0.82 5.83829 1.57435 2.14169 
591 191 39 0.41 5.55518 1.11425 2.98658 
592 191 39 0.41 5.05985 1.40734 1.48322 
593 192 38 -0.82 2.66546 -0.827583 2.86382 
594 192 39 0.41 3.09138 -0.174098 2.18555 
595 192 39 0.41 2.17632 -1.64191 2.42971 
596 193 38 -0.82 5.2227 6.21486 3.09894 
597 193 39 0.41 5.65778 5.29698 3.28375 
598 193 39 0.41 5.32867 6.90887 3.86784 
599 194 38 -0.82 9.95303 4.67544 3.58781 
600 194 39 0.41 9.41256 5.21505 2.91543 
601 194 39 0.41 9.28362 4.46391 4.37424 
602 195 38 -0.82 -2.43732 -1.53388 -3.05474 
603 195 39 0.41 -2.96547 -2.42632 -2.8992 
604 195 39 0.41 -3.15953 -0.821208 -3.15506 
605 196 38 -0.82 2.37765 9.63013 -7.17894 
606 196 39 0.41 3.40802 9.53586 -7.14621 
607 196 39 0.41 2.17671 9.64498 -8.18964 
608 197 38 -0.82 11.762 -7.80761 -1.76328 
609 197 39 0.41 11.5763 -8.60173 -1.09238 
610 197 39 0.41 11.7054 -6.99947 -1.12975 
611 198 38 -0.82 11.5133 -0.212426 10.0004 
612 198 39 0.41 -11.778 0.0315065 9.73259 
613 198 39 0.41 10.8496 -0.153034 9.18618 
614 199 38 -0.82 -3.07247 -10.6081 -9.16443 
615 199 39 0.41 -2.49407 -10.8857 -8.29241 
616 199 39 0.41 -3.33567 -11.4884 -9.61394 
617 200 38 -0.82 8.82231 11.1013 5.36067 
618 200 39 0.41 7.84074 11.0973 4.98839 
619 200 39 0.41 8.84995 11.1511 6.41814 
620 201 38 -0.82 7.58914 7.10222 -11.125 
621 201 39 0.41 8.39983 7.64329 -11.3494 
622 201 39 0.41 7.88815 6.53648 -10.342 
623 202 38 -0.82 -0.333208 0.271205 -7.61559 
624 202 39 0.41 -0.825079 1.12105 -7.9394 
625 202 39 0.41 -0.851042 -0.180035 -6.82482 
626 203 38 -0.82 -4.71235 -3.81617 -10.128 
627 203 39 0.41 -4.67043 -3.70094 -9.08688 
628 203 39 0.41 -3.88795 -4.35362 -10.4265 
629 204 38 -0.82 8.50581 -4.2243 0.0758946 
630 204 39 0.41 7.71855 -4.06711 -0.539156 
631 204 39 0.41 9.28047 -3.76113 -0.441128 
632 205 38 -0.82 0.715459 6.67824 -11.2878 
633 205 39 0.41 0.65004 6.76523 11.8948 
634 205 39 0.41 -0.269534 6.90026 -11.0899 
635 206 38 -0.82 -11.3034 -10.9007 4.15431 
636 206 39 0.41 -12.0146 -10.4547 4.72173 
637 206 39 0.41 -11.2567 -11.772 4.65671 
638 207 38 -0.82 -9.27845 9.7112 -8.91378 
639 207 39 0.41 -9.35995 10.4824 -8.25463 
640 207 39 0.41 -9.3708 8.7574 -8.47201 
641 208 38 -0.82 6.21385 12.0642 -1.7592 
642 208 39 0.41 6.49528 -11.4898 -2.44224 
643 208 39 0.41 5.16278 -12.0664 -1.73331 
644 209 38 -0.82 9.54224 -0.98067 -11.0199 
645 209 39 0.41 8.89036 -1.61931 -10.5278 
646 209 39 0.41 10.2337 -0.80419 -10.2962 
647 210 38 -0.82 -0.994692 -3.99284 -6.1827 
648 210 39 0.41 -0.135507 -4.40443 -5.84053 
649 210 39 0.41 -1.65176 -4.74153 -6.55137 
650 211 38 -0.82 1.08642 10.9767 -3.79603 
651 211 39 0.41 1.01003 9.91118 -3.70456 
652 211 39 0.41 0.820692 11.213 -2.84504 
653 212 38 -0.82 -4.51885 -5.66571 2.45922 
654 212 39 0.41 -4.02665 -5.38526 3.34867 
655 212 39 0.41 -5.40229 -5.18756 2.49546 
656 213 38 -0.82 8.8904 8.01619 -2.72558 
657 213 39 0.41 8.40911 8.21911 -1.8242 
658 213 39 0.41 8.87626 6.98068 -2.9261 
659 214 38 -0.82 4.85213 -11.9076 -11.8022 
660 214 39 0.41 4.50841 -11.0817 -11.2431 
661 214 39 0.41 5.32721 11.7213 -11.1519 
662 215 38 -0.82 -3.23939 5.91275 -0.0689187 
663 215 39 0.41 -2.54315 5.3028 0.435625 
664 215 39 0.41 -3.58961 5.25206 -0.754189 
665 216 38 -0.82 -4.53964 -3.31 -7.43262 
666 216 39 0.41 -4.65805 -2.7044 -6.55792 
667 216 39 0.41 -3.67917 -2.88836 -7.79116 
668 217 38 -0.82 9.72566 -1.19522 2.43217 
669 217 39 0.41 9.38329 -0.355377 1.98262 
670 217 39 0.41 9.03865 -1.92618 2.3093 
671 218 38 -0.82 11.3811 -3.46927 -10.2377 
672 218 39 0.41 12.002 -3.72872 -10.9692 
673 218 39 0.41 10.4798 -3.45571 -10.658 
674 219 38 -0.82 -7.85845 9.59327 9.37677 
675 219 39 0.41 -8.4797 10.4097 9.25776 
676 219 39 0.41 -6.89863 10.0073 9.57457 
677 220 38 -0.82 4.1263 0.766624 11.9652 
678 220 39 0.41 3.78521 0.116793 -11.5437 
679 220 39 0.41 3.66767 0.575763 11.0909 
680 221 38 -0.82 -2.79184 1.48866 7.47015 
681 221 39 0.41 -3.65985 1.6006 8.04629 
682 221 39 0.41 -3.023 1.69668 6.51098 
683 222 38 -0.82 7.67444 5.61356 11.0157 
684 222 39 0.41 8.44077 6.15891 10.4772 
685 222 39 0.41 7.56277 6.09753 11.9172 
686 223 38 -0.82 4.02091 -2.25965 -0.282795 
687 223 39 0.41 3.48622 -2.82141 0.398622 
688 223 39 0.41 4.7946 -2.87571 -0.549376 
689 224 38 -0.82 -7.73022 -6.55535 4.44928 
690 224 39 0.41 -7.54791 -7.54637 4.58439 
691 224 39 0.41 -7.56496 -5.97958 5.29436 
692 225 38 -0.82 -1.54914 -4.84694 1.38148 
693 225 39 0.41 -1.00384 -4.41402 0.64067 
694 225 39 0.41 -2.39743 -5.28062 0.887149 
695 226 38 -0.82 -7.81016 10.2334 -6.15569 
696 226 39 0.41 -8.68227 10.6352 -6.05388 
697 226 39 0.41 -7.31208 10.4121 -7.06338 
698 227 38 -0.82 -8.9531 -11.2665 6.38451 
699 227 39 0.41 -9.47702 -11.7343 7.05552 
700 227 39 0.41 -8.69007 -11.9087 5.64167 
701 228 38 -0.82 -11.9666 10.1605 -0.0285749 
702 228 39 0.41 12.1122 9.19395 -0.401402 
703 228 39 0.41 -11.2804 10.1964 0.703685 
704 229 38 -0.82 9.21501 4.32224 7.96503 
705 229 39 0.41 8.44725 4.09712 8.61966 
706 229 39 0.41 10.1409 4.1419 8.40069 
707 230 38 -0.82 5.28691 8.56769 4.52791 
708 230 39 0.41 6.23269 9.03307 4.55049 
709 230 39 0.41 4.70528 8.93432 3.71621 