LAMMPS data file from restart file: timestep = 20000; edited to sort order and remove velocities, and center

1429 atoms
961 bonds
514 angles
63 dihedrals
6 impropers

80 atom types
125 bond types
274 angle types
327 dihedral types
27 improper types

-12.12469 12.12469 xlo xhi
-12.12469 12.12469 ylo yhi
-12.12469 12.12469 zlo zhi

Masses

1 14.007
2 1.008
3 12.011
4 1.008
5 12.011
6 1.008
7 14.007
8 12.011
9 15.999
10 14.007
11 1.008
12 12.011
13 1.008
14 15.999
15 12.011
16 12.011
17 14.007
18 12.011
19 32.06
20 12.011
21 14.007
22 14.007
23 12.011
24 12.011
25 1.008
26 14.007
27 1.008
28 15.999
29 14.007
30 12.011
31 12.011
32 12.011
33 1.008
34 14.007
35 1.008
36 12.011
37 15.999
38 15.9994  # OT
39 1.008  # HT
40 15.9994
41 1.008
42 14.007
43 12.011
44 1.008
45 12.011
46 1.008
47 30.974
48 15.9994
49 15.9994
50 12.011
51 1.008
52 15.9994
53 12.011
54 15.9994
55 12.011
56 1.008
57 14.007
58 1.008
59 12.011
60 1.008
61 39.0983
62 35.45
63 63.5
64 24.305
65 40.08
66 55.847
67 14.007
68 12.011
69 12.011
70 12.011
71 12.011
72 1.008
73 15.9994
74 15.9994
75 1.008
76 12.011
77 1.008
78 12.011
79 1.008
80 15.999

Pair Coeffs

1       0.2     3.296325    0.2     3.29632
2       0.046   0.4000135   0.046   0.4000135
3       0.02    4.053589    0.01    3.385415  #CT1
4       0.022   2.351973    0.022   2.351973  #HA
5       0.055   3.875409    0.01    3.385415  #CT2
6       0.022   2.351973    0.022   2.35197   #HB
7       0.2     3.29632     0.2     3.29632
8       0.11    3.563595    0.11    3.563595  #C
9       0.12    3.029056    0.12    2.494516  #O
10      0.2     3.296325    0.2     2.761786  #NH1
11      0.046   0.4000135   0.046   0.4000135 #H
12      0.07 3.55005 0.07 3.55005
13      0.03 2.42004 0.03 2.42004
14      0.1521  3.153781    0.1521  3.153781 #OH1
15      0.08    3.670503    0.01    3.385415 #CT3
16      0.07    3.55005 0.07 3.55005
17      0.2  3.29632 0.2 3.29632
18      0.09 3.20723 0.09 3.38542
19      0.45 3.56359 0.45 3.56359
20      0.07    3.563595    0.07    3.563595 #CD
21      0.2  3.29632 0.2 3.29632
22      0.2  3.29632 0.2 3.29632
23      0.05 3.20723 0.05 3.20723
24      0.05 3.20723 0.05 3.20723
25      0.046 1.60362 0.046 1.60362
26      0.2 3.29632 0.2 3.29632
27      0.0078 2.61568 0.0078 2.61568
28      0.12      3.029056   0.12      3.029056 #OC
29      0.2       3.29632    0.0001    3.29632
30      0.055     3.87541    0.01      3.38542
31      0.02      4.05359    0.01      3.38542
32      0.055     3.87541    0.01      3.38542
33      0.1       0.801809   0.1       0.801809
34      0.2       3.29632    0.2       3.29632
35      0.046 1.24726 0.046 1.24726
36      0.07      3.563595   0.07      3.563595 #CC
37      0.12      3.02906    0.12      2.49452  #OB
38      0.1554253 3.16549    0.1554253 3.165492 #OT
39      0         0          0         0        #HT
40      0.0986097 3.118507   0.0986097 3.118507 #OTH
41      4.0583e-05  0        4.0583e-05  0      #HTH
42      0.2 3.29632 0.2 3.29632
43      0.08 3.6705 0.01 3.38542
44      0.046 1.24726 0.046 1.24726
45      0.056 3.58141 0.01 3.38542
46      0.028 2.38761 0.028 2.38761
47      0.585 3.83087 0.585 3.83087
48      0.12 3.02906 0.12 3.02906
49      0.1 2.93997 0.1 2.93997
50      0.02 4.05359 0.01 3.38542
51      0.022 2.35197 0.022 2.35197
52      0.1 2.93997 0.1 2.93997
53      0.07 3.56359 0.07 3.56359
54      0.12 3.02906 0.12 2.49452
55      0.078 3.63487 0.01 3.38542
56      0.024 2.38761 0.024 2.38761
57      0.2 3.29632 0.2 3.29632
58      0.046 0.400014 0.046 0.400014
59      0.068 3.72396 0.068 3.72396
60      0.031 2.22725 0.031 2.22725
61      0.087 3.14264 0.087 3.14264
62      0.15 4.04468 0.15 4.04468
63      0.06 2.45888 0.06 2.45888
64      0.015 2.11143 0.015 2.11143
65      0.12 2.43572 0.12 2.43572
66      0.05 2.13816 0.05 2.13816
67      0.2 3.29632 0.2 3.29632
68      0.09 3.20723 0.09 3.20723
69      0.09 3.20723 0.09 3.20723
70      0.09 3.20723 0.09 3.20723
71      0.06 3.20723 0.06 3.20723
72      0.046 1.60362 0.046 1.60362
73      0.12 3.02906 0.12 2.49452
74      0.1521 3.15378 0.1521 3.15378
75      0.046 0.400014 0.046 0.400014
76      0.068 3.72396 0.068 3.72396
77      0.031 2.22725 0.031 2.22725
78      0.064 3.70614 0.064 3.70614
79      0.026 2.24506 0.026 2.24506
80      0.12 3.02906 0.12 3.02906

Angle Coeffs

1 51.5 107.5 0 0
2 43.7 110 0 0
3 30 109.5 20 2.074
4 44 109.5 0 0
5   80 121 0 0
6   80 116.5 0 0
7   33.43 110.1 22.53 2.179
8   58.35 113.5 11.16 2.561
9   26.5 110.1 22.53 2.179
10 58.35 113.6 11.16 2.561
11  35 111 0 0
12  52   108   0   0  # C    CT1  CT2
13 67.7 110 0 0
14  35.5 109 5.4 1.802
15 67.7 107.5 0 0
16 40.4 120 0 0
17 62.3 120 0 0
18 52 120 90 2.3642
19 51.5 107.5 0 0
20 49 120 0 0
21 25 120 0 0
22  50  109.5   0   0 # C    CT1  HB
23 48 108 0 0
24 50 107 0 0
25  80 122.5 0 0
26  34 123 0 0   # C    NH1  H
27  35 117 0 0
28 80 121 0 0
29 80 116.5 0 0
30  50 120 0 0     # C    NH1  CT1
31 36 115 0 0
32 50 109.5 0 0
33  48 108 0 0
34  50 107 0 0     # C    CT1  NH1
35  35 117 0 0
36 51.8 107.5 0 0
37  50 120 0 0       # C    NH1  CT3
38 45.8 122.3 0 0
39  70 113.5 0 0
40 40 120 35 2.4162
41 30 120 22 2.1525
42 49.3 107.5 0 0
43 34.5 110.1 22.53 2.179
44 53.35 108.5 8 2.561
45 75.7 110.1 0 0
46 33.43 110.1 22.53 2.179
47 57.5 106 0 0
48 35 111 0 0
49 52 108 0 0
50 70 113.5 0 0
51 45.9 108.89 0 0
52 75.7 110.1 0 0
53 34.5 110.1 22.53 2.179
54  35.5 108.4 5.4 1.802
55 58.35 114 0 0
56 45.8 129.4 0 0
57 45.8 124 0 0
58 110 107.4 0 0
59 160 130.6 0 0
60 33.43 109.5 0 0
61 28 126 0 0
62 110 108 0 0
63 32 125 25 2.173
64 110 107.4 0 0
65 120 110 25 2.24
66 32 125 25 2.177
67 60 118 0 0
68 30 122 22 2.146
69 28 126 0 0
70 120 107.4 25 2.261
71 60 122 0 0
72 160 130.6 0 0
73 58 114.5 0 0
74 34 95 0 0
75 46.1 111.3 0 0
76 46.1 111.3 0 0
77 75.7 110.1 0 0
78 57.5 106 0 0
79 45.9 108.89 0 0
80 52 108 0 0
81 15 121 50 2.44
82 50 116.5 50 2.45
83 50 120 0 0
84  33 109.5 30 2.163   # C    CT3  HA
85 75 122.5 50 2.37
86 23 120 0 0
87 58.35 113 0 0
88 45.8 130 0 0
89 45.8 120 0 0
90 130 110 0 0
91 130 104 0 0
92 33.43 109.5 0 0
93 30 127 20 2.14
94 25 125 20 2.12
95 130 106 0 0
96 25 124 20 2.14
97 130 112.5 0 0
98 25 122.5 20 2.14
99 30 125.5 20 2.15
100 130 107.5 0 0
101 25 130 20 2.2
102 67.7 110 0 0
103 30 109.5 20 2.074
104 45 107.5 35 2.101
105 40 118 50 2.388
106 100 124 70 2.225
107 53.35 111 8 2.561
108 58.35 113.5 11.16 2.561
109 34.6 110.1 22.53 2.179
110 34.5 110.1 22.53 2.179
111 53.35 114 8 2.561
112 34.6 110.1 22.53 2.179
113 53.35 114 8 2.561
114 58.35 113.5 11.16 2.561
115 65 108 0 0
116 45.2 120 0 0
117 35 111 0 0
118 52 108 0 0
119 70 113.5 0 0
120 52   108 0 0    # CD   CT2  CT1
121 20 112.5 0 0
122 48 112 0 0
123 70 110.8 0 0
124 48 108 0 0
125 80 122.5 0 0
126 26.5 110.1 22.53 2.179
127 60 117 0 0
128 35.5 109 5.4 1.802
129 80 118 0 0
130 80 116.5 0 0
131 33.43 110.1 22.53 2.179
132 70 108.5 0 0
133 60 117 0 0
134 100 114.2 0 0
135 26.5 110.1 22.53 2.179
136 70 108.5 0 0
137 35 118 0 0
138 35.5 109 5.4 1.802
139 26.5 110.1 22.53 2.179
140 70 110.5 0 0
141 50 112 0 0
142 52 112.3 0 0
143 50 108.2 0 0
144 58 112.5 0 0
145 38.8 95 0 0
146 45.8 122 0 0
147 145 108 0 0
148 25 126 15 2.13
149 22 130 15 2.215
150 145 108 0 0
151 22 122 15 2.18
152 25 126 15 2.09
153 145 108 0 0
154 32 126 25 2.14
155 45.8 124 0 0
156 50 90 0 0
157 25 120 20 2.14
158 20 112.5 0 0
159 50 111 0 0
160 38 109.5 50 2.14
161 39 106.5 0 0
162 67.7 110 0 0
163 70   125 20 2.442
164 55   110.5 0 0
165 33 109.5 30 2.163
166 50   123 210 2.262
167 55   115 0 0
168 52 108 0 0
169 0 180 0 0
170 0 180 0 0
171 50 109.5 0 0
172 40 118 50 2.388
173 50 107 0 0
174 52 108 0 0
175 67.7 110 0 0
176 20 112.5 0 0
177 52 108 0 0
178 51.5 107.5 0 0
179 43.7 110 0 0
180 52 108 0 0
181 37.95    113.24   0 0  # HT   OT   HT
182 38.74335 111.7269 0 0  # HTH  OTH  HTH
183 67.7 115 0 0
184 40 109.5 27 2.13
185 40 109.5 27 2.13
186 60 109.5 26 2.466
187 60 109.5 26 2.466
188 24 109.5 28 1.767
189 75.7 110.1 0 0
190 26.5 110.1 22.53 2.179
191 33.43 110.1 22.53 2.179
192 24 109.5 28 1.767
193 20 120 35 2.33
194 60 109.5 0 0
195 35.5 109 5.4 1.802
196 120 120 0 0
197 98.9 111.6 0 0
198 80 104.3 0 0
199 75.7 110.1 0 0
200 58.35 113.5 11.16 2.561
201 34.5 110.1 22.53 2.179
202 26.5 110.1 22.53 2.179
203 75.7 110.1 0 0
204 40 109.6 30 2.2651
205 75.7 110.1 0 0
206 60 109.5 0 0
207 90 125.9 160 2.2576
208 55 109 20 2.326
209 52 108 0 0
210 33 109.5 30 2.163
211 58.35 113.6 11.16 2.561
212 70 125 20 2.442
213 40 109.6 30 2.2651
214 60 109.5 0 0
215 58 115 8 2.561
216 34.6 110.1 22.53 2.179
217 34.6 110.1 22.53 2.179
218 35.5 108.4 5.4 1.802
219 67.7 110 0 0
220 45 107.5 35 2.0836
221 33 109.5 4 2.056
222 41 109.5 0 0
223 32 112.2 0 0
224 48 123.5 0 0
225 40 116 0 0
226 45 111.5 0 0
227 52 119.5 0 0
228 0 104 0 0
229 0 104 0 0
230 96.15 128.05 0 0
231 30 123 0 0
232 30 133 0 0
233 88 124.39 0 0
234 122 111.54 0 0
235 14.39 90 0 0
236 12.7 117.44 0 0
237 65 126.74 0 0
238 30.8 106.51 0 0
239 139.3 103.9 0 0
240 50 109.5 0 0
241 70 113 0 0
242 45 119.8 0 0
243 61.6 124.07 0 0
244 65 126.75 0 0
245 94.2 125.12 0 0
246 45 119.8 0 0
247 65 126.74 0 0
248 50 109.5 0 0
249 58.35 113.5 11.16 2.561
250 75.7 110.1 0 0
251 34.5 110.1 22.53 2.179
252 65 126.75 0 0
253 70 126.75 0 0
254 50 120 0 0
255 70 121.5 0 0
256 70 126.74 0 0
257 15 116 0 0
258 75 126 0 0
259 65 118 0 0
260 58.35 113.5 11.16 2.561
261 57.5 106 0 0
262 65 126.74 0 0
263 65 126.75 0 0
264 45.9 108.89 0 0
265 75.7 110.1 0 0
266 45 120.5 0 0
267 42 118 0 0
268 19 119 0 0
269 48 123.5 0 0
270 42 111.5 0 0
271 47 125.2 0 0
272 47 125.2 0 0
273 5 90 0 0
274 51.5   109.5 0 0

Dihedral Coeffs

1 0.2 3 0 1
2 0.6 1 0 1
3 0 1 0 1
4 0.1 3 0 1
5 2.5 2 180 1
6 1.6 1 0 1
7 2.5 2 180 0
8 0.195 3 0 1
9 0 1 0 1
10 0 1 0 1
11 0 1 0 1
12 1.4 1 0 1
13 0 6 180 1
14 2.25 2 180 1
15 0.2 1 180 1
16 0 1 0 1
17 2.5 2 180 1
18 2.5 2 180 1
19 0.6 1 0 1
20 0 1 0 1
21 0 1 0 1
22 0 1 0 1
23 2.5 2 180 1
24 1.6 1 0 1
25 2.5 2 180 0
26 0 1 0 1
27 0 1 0 1
28 1.8 1 0 1
29 0.2 1 180 1
30 0 1 0 1
31 2.5 2 180 1
32 0.6 1 0 1
33 0 1 0 1
34 0 1 0 1
35 0 1 0 1
36 0 1 0 1
37 1.6 1 0 1
38 2.5 2 180 0
39 0.23 2 180 1
40 4.2 2 180 1
41 3.1 2 180 1
42 0 6 0 1
43 3.1 2 180 1
44 4.2 2 180 1
45 0.04 3 0 1
46 2.4 2 180 1
47 1.8 1 0 1
48 0.2 3 0 1
49 0 1 0 1
50 1.33 1 0 1
51 0.18 2 0 0
52 0.32 3 0 0
53 0.2 3 0 1
54 0 1 0 1
55 1.4 1 0 1
56 0.14 3 0 1
57 1.33 1 0 1
58 0.18 2 0 0
59 0.32 3 0 0
60 0.23 2 180 1
61 0.23 2 180 1
62 3 2 180 1
63 3 2 180 1
64 3.5 2 180 1
65 1.2 2 180 1
66 0.25 2 180 1
67 0.25 2 180 1
68 3 2 180 1
69 3 2 180 1
70 10 2 180 1
71 5 2 180 1
72 5 2 180 1
73 0.8 2 180 1
74 3 2 180 1
75 5 2 180 1
76 3 2 180 1
77 4 2 180 1
78 2 2 180 1
79 0.4 2 180 1
80 2 2 180 1
81 3 2 180 1
82 2.8 2 180 1
83 10 2 180 1
84 4 2 180 1
85 0.8 2 180 1
86 0.8 2 180 1
87 3.1 2 180 1
88 3 2 180 1
89 3 2 180 1
90 3.1 2 180 1
91 3.1 2 180 1
92 0.24 1 180 1
93 0.37 3 0 0
94 0.01 3 0 1
95 0.28 3 0 1
96 0.28 3 0 1
97 1.3 1 0 1
98 0.3 2 0 0
99 0.42 3 0 0
100 0.14 3 0 1
101 0.05 6 180 1
102 1.4 2 180 1
103 0 3 180 1
104 0 3 180 1
105 1.4 2 180 1
106 0.19 3 0 1
107 0.2 1 0 1
108 0.27 2 0 0
109 0 3 0 0
110 3 2 180 1
111 3 2 180 1
112 2 2 180 1
113 0.19 3 0 1
114 0 3 0 1
115 14 2 180 1
116 1 2 180 1
117 14 2 180 1
118 3 2 180 1
119 14 2 180 1
120 1 2 180 1
121 14 2 180 1
122 3 2 180 1
123 3 2 180 1
124 14 2 180 1
125 3 2 180 1
126 1 2 180 1
127 1 2 180 1
128 0.15 1 0 1
129 0.1 3 0 1
130 0.16 3 0 1
131 3.1 2 180 1
132 0.99 2 180 1
133 4.2 2 180 1
134 1.6 1 0 1
135 2.5 2 180 0
136 1.8 1 0 1
137 0 1 0 1
138 0 1 0 1
139 1.4 1 0 1
140 0.4 1 0 1
141 2.75 2 180 1
142 0.3 4 0 0
143 2.75 2 180 1
144 0.3 4 0 0
145 0 1 0 1
146 0 1 0 1
147 0.8 3 0 1
148 0.8 3 0 1
149 0.8 3 0 1
150 0 3 180 1
151 0 3 180 1
152 2.75 2 180 1
153 0.3 4 0 0
154 2.75 2 180 1
155 0.3 4 0 0
156 0.3 1 0 1
157 -0.3 4 0 0
158 -0.3 4 0 1
159 0.14 3 0 1
160 0.14 3 0 1
161 0.16 3 0 1
162 0.1 3 0 1
163 0.1 3 0 1
164 0.1 3 0 1
165 0.1 3 0 1
166 2.5 2 180 1
167 1.6 1 0 1
168 2.5 2 180 0
169 0.1 3 0 1
170 0.4 1 180 1
171 0.6 2 0 0
172 0.4 1 0 1
173 0.6 2 0 0
174 0.4 1 0 1
175 0.6 2 0 0
176 0.4 1 180 1
177 0.6 2 0 0
178 0.24 1 0 1
179 0.15 2 0 0
180 0.27 3 0 0
181 0.2 3 0 1
182 0.19 3 0 1
183 2.5 2 180 1
184 3 2 180 1
185 2.5 2 180 1
186 1 2 180 1
187 0.19 3 0 1
188 12 2 180 1
189 3 2 180 1
190 12 2 180 1
191 1.4 2 180 1
192 3 2 180 1
193 2.5 2 180 1
194 2.5 2 180 1
195 1.4 2 180 1
196 12 2 180 1
197 0 2 180 1
198 0 1 0 1
199 1.6 1 0 1
200 2.5 2 180 0
201 0 1 0 1
202 3 2 180 1
203 1 2 180 1
204 3 2 180 1
205 0.19 3 0 1
206 0.19 3 0 1
207 3 2 180 1
208 0.05 4 0 1
209 3 2 180 1
210 0.3 1 0 1
211 -0.3 4 0 0
212 2.75 2 180 1
213 0.3 4 0 0
214 2.75 2 180 1
215 0.3 4 0 0
216 0.4 1 180 1
217 0.6 2 0 0
218 0.4 1 0 1
219 0.6 2 0 0
220 0.11 3 0 1
221 0.11 3 0 1
222 2.05 2 180 1
223 0 6 180 1
224 0.2 1 180 1
225 0 1 0 1
226 0.05 6 180 1
227 0.4 1 0 1
228 2.75 2 180 1
229 0.3 4 0 0
230 2.75 2 180 1
231 0.3 4 0 0
232 0 1 0 1
233 0.4 1 0 1
234 0 1 0 1
235 0.19 3 0 1
236 3.3 1 180 1
237 -0.4 3 180 0
238 0.23 3 0 1
239 0.26 3 0 1
240 0.407 2 0 1
241 0.241 1 180 0
242 1.2 1 180 1
243 0.1 2 180 0
244 0.1 3 180 0
245 0.1 3 0 1
246 0 3 0 1
247 0.407 2 0 1
248 0.241 1 180 0
249 0.2 3 0 1
250 0 4 0 1
251 0.607 3 180 0
252 0.254 2 60 0
253 2.016 1 180 0
254 0 3 0 1
255 0 4 0 1
256 0.15 3 180 0
257 1.453 2 180 0
258 0.837 1 180 0
259 0.267 3 180 1
260 0.173 2 0 0
261 0.781 1 180 0
262 2.05 2 180 1
263 0.965 1 180 1
264 3.85 2 180 0
265 0 3 0 1
266 0 6 180 1
267 0 6 0 1
268 0.03 3 180 0
269 0.432 2 180 0
270 0.332 1 0 0
271 -0.429 4 60 1
272 0.614 3 0 0
273 -0.115 2 60 0
274 0.703 1 180 0
275 0 5 180 1
276 0.317 3 180 0
277 0.557 2 0 0
278 0.753 1 0 0
279 0 6 180 1
280 0.05 6 180 1
281 0.101 2 0 1
282 0.142 3 180 0
283 0.074 4 0 0
284 0.097 5 0 0
285 0.965 1 180 1
286 3.85 2 180 0
287 0 3 0 1
288 0.162 2 0 1
289 0.047 3 180 0
290 0.105 4 0 0
291 0.177 5 0 0
292 0.16 3 0 1
293 0.7 1 180 1
294 0.1 3 0 1
295 0.14 1 180 1
296 0.17 2 0 0
297 0.05 3 180 0
298 0.12 3 0 1
299 0.91 1 180 1
300 0.18 2 180 0
301 0.17 3 180 0
302 0.45 1 180 1
303 8.5 2 180 0
304 0 3 0 1
305 0.3 3 180 1
306 1 2 180 1
307 0 6 0 1
308 0 6 0 1
309 0 2 0 1
310 0 2 0 1
311 0 2 0 1
312 0 2 0 1
313 0 2 0 1
314 0 6 0 1
315 1.08 2 180 1
316 0 6 0 1
317 0 6 0 1
318 0.14 3 0 1
319 3 2 180 1
320 5.2 2 180 1
321 5.2 2 180 1
322 0.3 3 180 1
323 1 2 180 1
324 0 3 0 1
325 0.12 3 0 1
326 0 3 0 1
327 0 3 0 1

Improper Coeffs

1 40 0
2 120 0
3 20 0
4 45 0
5 4 0
6 0.5 0
7 0.45 0
8 0.5 0
9 96 0
10 0 0
11 1.2 0
12 0.5 0
13 100 0
14 96 0
15 100 0
16 40.6 0
17 18.3 0
18 137.4 0
19 20.8 0
20 32.7 0
21 90 0
22 29.4 0
23 53 0
24 96 0
25 90 0
26 3 0
27 3 0

Atoms

    1     1     6    0.0900      2.11623393     -1.57499044     -2.73456658
    2     1    15   -0.2700      1.59695731     -0.85721804     -2.03191751
    3     1     6    0.0900      2.30854460     -0.31869539     -1.41355543
    4     1     6    0.0900      1.09963805     -0.04949706     -2.63892892
    5     1     8    0.5100      0.61645484     -1.56866839     -1.21614795
    6     1     9   -0.5100      0.46021892     -2.81409308     -1.33249816
    7     2    10   -0.4700     -0.12773372     -0.90484148     -0.28284638
    8     2    11    0.3100      0.00000000     -0.00000000     -0.00000000
    9     2     3    0.0700     -1.19429440     -1.44762641      0.47528142
   10     2     4    0.0900     -1.39211899     -2.46873561      0.13361789
   11     2     3   -0.1800     -0.84545844     -1.32554726      2.02151307
   12     2     6    0.0900     -0.16386491     -2.20474351      2.24488430
   13     2     6    0.0900     -0.36825862     -0.33173266      2.15822087
   14     2     5   -0.2800     -1.94157707     -1.63380163      3.05542775
   15     2     6    0.0900     -1.48456828     -1.50532365      4.08889855
   16     2     6    0.0900     -2.77039719     -0.89049197      3.12269196
   17     2    20    0.6200     -2.58105310     -3.01245574      2.94315994
   18     2    28   -0.7600     -3.28827704     -3.30132021      1.98082105
   19     2    28   -0.7600     -2.34413455     -3.80979844      3.90445490
   20     2     8    0.5100     -2.33609643     -0.63526089      0.02475607
   21     2     9   -0.5100     -2.07995741      0.36919126     -0.64091006
   22     3    10   -0.4700     -3.52455480     -1.11425171      0.31176382
   23     3    11    0.3100     -3.55087330     -1.96811545      0.79348817
   24     3    15   -0.1100     -4.76067232     -0.50807751     -0.29274739
   25     3     6    0.0900     -5.61274748     -1.08437273      0.17570782
   26     3     6    0.0900     -4.89623837      0.54785599      0.11076278
   27     3     6    0.0900     -4.72442946     -0.53912245     -1.42791394
   28     4    40   -0.3200      0.58028124     -6.95732081      2.90480017
   29     4    41    0.4400      0.64118295     -8.00584920      2.96380441
   30     4    41    0.4400     -0.29400438     -6.45960821      3.35997897
   31     4    41    0.4400      0.56161050     -6.64548756      1.90304154
   32     5    38   -0.8200      2.65030176      7.51139803     -0.30117317
   33     5    39    0.4100      3.03983235      6.71061512     -0.83631004
   34     5    39    0.4100      2.82211015      7.40573616      0.70931357
   35     6    38   -0.8200      4.03198670     10.97979679    -10.91602705
   36     6    39    0.4100      4.58224438     11.71430592    -10.43309795
   37     6    39    0.4100      3.08371596     11.08900141    -10.50289937
   38     7    38   -0.8200     -7.49014607      1.96094812     11.81527628
   39     7    39    0.4100     -6.69294652      2.67184988     11.71167275
   40     7    39    0.4100     -7.04054919      1.18459612     11.37669370
   41     8    38   -0.8200      4.47679745      2.29745425     -8.14499819
   42     8    39    0.4100      4.44144049      2.42284214     -9.20180879
   43     8    39    0.4100      3.73217520      2.71832403     -7.61530726
   44     9    38   -0.8200      7.90137204      2.44416844     -1.84890161
   45     9    39    0.4100      8.17913137      2.43506255     -2.82409465
   46     9    39    0.4100      6.88945208      2.25952671     -1.97307348
   47    10    38   -0.8200    -10.17488668     -4.40733592      2.39243587
   48    10    39    0.4100     -9.87608415     -4.50509923      3.33295894
   49    10    39    0.4100    -10.46352058     -3.41527586      2.39345607
   50    11    38   -0.8200      3.25911671      4.44265544     10.61215349
   51    11    39    0.4100      2.94050219      4.23332470      9.66133135
   52    11    39    0.4100      2.61304527      3.93557356     11.28928758
   53    12    38   -0.8200      1.82987524     11.82059517      4.76336730
   54    12    39    0.4100      2.42541106     11.08734225      5.27620106
   55    12    39    0.4100      0.80457717     11.88744624      5.12157417
   56    13    38   -0.8200      6.66093272      7.46311555    -10.55332126
   57    13    39    0.4100      5.95204069      7.82158914    -11.23129402
   58    13    39    0.4100      6.30389536      6.76272456     -9.88153280
   59    14    38   -0.8200      3.70089707      5.40789467     -1.57266764
   60    14    39    0.4100      3.16971535      4.95511188     -2.32230316
   61    14    39    0.4100      4.51813565      5.78296373     -2.02691360
   62    15    38   -0.8200     -3.21609562      6.50916319      8.30998809
   63    15    39    0.4100     -2.41056604      5.98868253      8.05390318
   64    15    39    0.4100     -3.97992660      5.94575269      8.60818655
   65    16    38   -0.8200      6.13917371     -9.31891587      7.55545109
   66    16    39    0.4100      5.92536488     -8.32372053      7.34668831
   67    16    39    0.4100      6.48751254     -9.29847945      8.54175577
   68    17    38   -0.8200     -8.11286985      7.56630563     -9.66613469
   69    17    39    0.4100     -7.79984131      7.93169655    -10.55467330
   70    17    39    0.4100     -7.36803318      7.51994788     -8.94391136
   71    18    38   -0.8200     -7.70905961     -3.65625805     -4.07060096
   72    18    39    0.4100     -7.93099697     -4.63395389     -3.84557200
   73    18    39    0.4100     -6.75548647     -3.59432687     -4.43892215
   74    19    38   -0.8200      9.16876987     11.53214818      2.82921255
   75    19    39    0.4100      9.37034891    -12.00746861      2.12376181
   76    19    39    0.4100      9.29056903     10.60257974      2.32719704
   77    20    38   -0.8200     -3.91136329      3.03428374      8.20447440
   78    20    39    0.4100     -3.51067861      3.00560758      9.11166293
   79    20    39    0.4100     -4.63092633      3.80669078      8.08552844
   80    21    38   -0.8200     -9.92793951     -5.66281140      8.31522026
   81    21    39    0.4100    -10.54143038     -4.98324649      7.79029109
   82    21    39    0.4100     -8.91741518     -5.57354633      8.02318258
   83    22    38   -0.8200     -0.05093167      4.65327365     -7.79224047
   84    22    39    0.4100     -0.94471699      4.12055112     -7.56303740
   85    22    39    0.4100     -0.17072151      5.54216866     -7.35727508
   86    23    38   -0.8200     -2.98107667     11.19269977      6.99533353
   87    23    39    0.4100     -2.65185651     10.39685792      7.58517222
   88    23    39    0.4100     -3.10871404     11.97593329      7.64216549
   89    24    38   -0.8200     -2.05226486     -5.04680141      0.44309436
   90    24    39    0.4100     -2.63069756     -4.34807240      0.97438072
   91    24    39    0.4100     -2.42270674     -5.98922986      0.67375521
   92    25    38   -0.8200      4.09497365      2.72020958    -10.67236253
   93    25    39    0.4100      3.23949518      2.87246625    -11.25428938
   94    25    39    0.4100      4.89519125      3.14537452    -11.08782194
   95    26    38   -0.8200      8.31938141     -8.41237589    -10.16700535
   96    26    39    0.4100      7.41099027     -8.22387455     -9.65679206
   97    26    39    0.4100      8.30303766     -7.70284099    -10.92528172
   98    27    38   -0.8200     -8.17157889     -1.88774913     10.64108865
   99    27    39    0.4100     -8.21129630     -2.91322600     10.66611405
  100    27    39    0.4100     -8.67698824     -1.66114921      9.70704043
  101    28    38   -0.8200      8.34549817      9.96925372    -11.77094894
  102    28    39    0.4100      8.32263462      9.24152239    -11.08526932
  103    28    39    0.4100      7.70954273      9.85832646     11.65792206
  104    29    38   -0.8200    -10.18137815     -7.78134380      6.82297603
  105    29    39    0.4100     -9.97056525     -7.17727482      7.67244181
  106    29    39    0.4100    -10.81237539     -7.22422761      6.33310594
  107    30    38   -0.8200     -6.74606892      2.43241930      0.41873894
  108    30    39    0.4100     -7.55293375      2.65004817      1.03267447
  109    30    39    0.4100     -7.01759700      1.64878465     -0.16843366
  110    31    38   -0.8200     -4.19848758     -3.42476260      5.70578939
  111    31    39    0.4100     -3.86201738     -3.16857868      6.64104861
  112    31    39    0.4100     -3.40050826     -3.57513962      5.13967161
  113    32    38   -0.8200      4.25233295     -2.17344353     -5.42464260
  114    32    39    0.4100      4.14375455     -2.51000338     -6.37852722
  115    32    39    0.4100      5.24175658     -2.12991649     -5.20186985
  116    33    38   -0.8200      4.15712757     -2.70682242     -0.42211792
  117    33    39    0.4100      4.21514258     -3.03013415     -1.39679205
  118    33    39    0.4100      3.49088976     -3.29726456      0.03445919
  119    34    38   -0.8200      1.81667410    -11.43742460     -3.53463619
  120    34    39    0.4100      1.22144826    -11.59860214     -4.38581302
  121    34    39    0.4100      2.59100780    -12.07405158     -3.47833107
  122    35    38   -0.8200     -4.16170374      0.93800417    -11.07396832
  123    35    39    0.4100     -4.65598711      1.65526803    -10.54977421
  124    35    39    0.4100     -4.87257007      0.45195438    -11.74792717
  125    36    38   -0.8200      8.60917014     -2.70288780      5.27611603
  126    36    39    0.4100      7.79688750     -2.63795577      5.87867433
  127    36    39    0.4100      9.15454536     -1.80918618      5.31024796
  128    37    38   -0.8200     -7.87007971     -5.42847382     -0.81224253
  129    37    39    0.4100     -8.87238260     -5.13160929     -0.88945620
  130    37    39    0.4100     -7.64921996     -5.44672031      0.21269735
  131    38    38   -0.8200      1.97386233      9.89230848     -1.34191417
  132    38    39    0.4100      2.39210787      9.11138253     -0.77155769
  133    38    39    0.4100      2.76478614     10.39236099     -1.77714673
  134    39    38   -0.8200     -4.25760259     10.07937363      0.69674060
  135    39    39    0.4100     -3.85646303      9.66478583      1.53118379
  136    39    39    0.4100     -4.26678218     11.07956299      0.70572996
  137    40    38   -0.8200     11.36397910     -6.01452562     -9.21218821
  138    40    39    0.4100     11.89652088     -6.12467635    -10.06958728
  139    40    39    0.4100     10.56439431     -6.73707858     -9.27796223
  140    41    38   -0.8200     11.89826771     -9.33754025      2.15680380
  141    41    39    0.4100     10.99470319     -9.75622031      1.85546587
  142    41    39    0.4100     11.85604210     -8.92287572      3.07185162
  143    42    38   -0.8200    -11.69354648      7.05300557    -11.53840931
  144    42    39    0.4100    -11.65676334      7.78940822    -10.78815814
  145    42    39    0.4100    -10.91654591      7.22458885     11.98772311
  146    43    38   -0.8200      5.97385421      7.39390773     -5.47115198
  147    43    39    0.4100      6.94575936      7.20671559     -5.83242681
  148    43    39    0.4100      5.79223690      6.68350581     -4.71576388
  149    44    38   -0.8200      5.94164267      6.54103408     -2.58580003
  150    44    39    0.4100      6.63122407      5.97574063     -2.13494892
  151    44    39    0.4100      6.31597852      7.44427063     -2.82276540
  152    45    38   -0.8200      9.36494391      5.23463938     -4.33363523
  153    45    39    0.4100      9.47085358      5.44227259     -3.31739512
  154    45    39    0.4100      9.16924309      6.09992048     -4.80848529
  155    46    38   -0.8200     11.23337214      9.06915564     -9.59819202
  156    46    39    0.4100     11.99421356      8.59906748     -9.08779505
  157    46    39    0.4100     10.66986894      8.23561004     -9.88657223
  158    47    38   -0.8200     -7.36335537      0.23941437      2.21238261
  159    47    39    0.4100     -8.00332469     -0.31930116      1.64362889
  160    47    39    0.4100     -7.12463838      1.18878722      1.84961401
  161    48    38   -0.8200     -0.24560953     -5.23611532      7.77183105
  162    48    39    0.4100      0.38365275     -4.67690091      8.38191262
  163    48    39    0.4100     -0.39387961     -4.50840438      7.05303079
  164    49    38   -0.8200     -7.87656074     -0.84115566     -3.65629805
  165    49    39    0.4100     -7.90369393     -1.85164583     -3.74257226
  166    49    39    0.4100     -7.14102213     -0.61249477     -2.99250857
  167    50    38   -0.8200    -11.20247346     11.35857048      8.34514309
  168    50    39    0.4100    -11.77159684    -12.04714249      8.13618571
  169    50    39    0.4100    -11.19192334     11.10383512      9.35244355
  170    51    38   -0.8200      2.84392298      0.67611396      0.62906385
  171    51    39    0.4100      3.54186942      1.39583180      0.59874800
  172    51    39    0.4100      3.24187861     -0.27909323      0.70895706
  173    52    38   -0.8200    -11.96694835     -3.01903295     12.08223061
  174    52    39    0.4100    -11.97864701     -4.05615696    -12.00950481
  175    52    39    0.4100    -11.04485845     -2.78266218    -11.79245828
  176    53    38   -0.8200     -9.79035189    -12.04152830     11.82063705
  177    53    39    0.4100     -9.88402313     11.19957476     11.66091847
  178    53    39    0.4100    -10.39982221    -11.52536610     11.25818186
  179    54    38   -0.8200     -1.99159357      2.53214374      0.76050541
  180    54    39    0.4100     -1.94114183      1.66580883      0.27920914
  181    54    39    0.4100     -2.10725294      2.50285652      1.76848564
  182    55    38   -0.8200      9.66092118     10.87023072     -8.62649114
  183    55    39    0.4100     10.14875817     10.18805679     -9.23389270
  184    55    39    0.4100      8.75559661     11.29289474     -8.97488090
  185    56    38   -0.8200     -0.08512461    -10.84874263     11.70924124
  186    56    39    0.4100      0.92204834    -10.74012218     11.54267516
  187    56    39    0.4100     -0.21695183    -11.85330723     11.81158273
  188    57    38   -0.8200     -7.92191868      1.50044367     -5.43769036
  189    57    39    0.4100     -8.04214310      0.71958165     -4.79887571
  190    57    39    0.4100     -7.18941733      1.11665114     -5.98934154
  191    58    38   -0.8200      4.49628608     -6.78300137      0.36124822
  192    58    39    0.4100      4.33102300     -7.56441747     -0.38671499
  193    58    39    0.4100      5.23677755     -6.23317291     -0.10671853
  194    59    38   -0.8200     -8.15633788     -8.70960681     -8.11722986
  195    59    39    0.4100     -8.10724141     -9.68594040     -7.73557262
  196    59    39    0.4100     -9.17182033     -8.63545114     -8.29851426
  197    60    38   -0.8200      0.38122495      6.62205360     11.42273786
  198    60    39    0.4100     -0.05721076      5.77386760     11.05356986
  199    60    39    0.4100     -0.14748661      7.05737325    -12.06303604
  200    61    38   -0.8200      2.34402292      3.58488224     -6.97371855
  201    61    39    0.4100      1.48297528      3.52517461     -7.42445847
  202    61    39    0.4100      2.77845091      4.46282246     -7.31858659