ITEM: TIMESTEP
0
ITEM: NUMBER OF ATOMS
1429
ITEM: BOX BOUNDS pp pp pp
-1.2124689999999999e+01 1.2124689999999999e+01
-1.2124689999999999e+01 1.2124689999999999e+01
-1.2124689999999999e+01 1.2124689999999999e+01
ITEM: ATOMS id mol type q x y z 
1 1 9 0.51 5.07127 -0.398053 -8.30967 
2 1 16 -0.51 5.37142 0.590388 -8.93786 
3 1 15 -0.47 3.99374 -1.25229 -8.66226 
4 1 5 0.31 3.70767 -2.13466 -8.17682 
5 1 13 -0.11 2.87425 -0.809223 -9.38231 
6 1 8 0.09 2.05425 -1.4751 -9.23989 
7 1 8 0.09 2.50594 0.0714659 -8.86313 
8 1 8 0.09 3.14533 -0.753122 -10.4365 
9 1 13 -0.27 9.78715 -0.169863 -7.08958 
10 1 8 0.09 10.4849 -0.801729 -6.43631 
11 1 8 0.09 9.58785 0.65512 -6.4074 
12 1 8 0.09 10.3112 0.0949281 -8.05179 
13 1 9 0.51 8.47009 -0.887868 -7.377 
14 1 16 -0.51 8.47738 -2.02258 -7.92067 
15 1 15 -0.47 7.33127 -0.246533 -7.14177 
16 1 5 0.31 7.34366 0.778336 -7.0178 
17 1 10 0.07 5.96255 -0.846816 -7.09439 
18 1 6 0.09 6.09437 -1.93227 -6.99621 
19 1 12 -0.18 5.1488 -0.528468 -5.72167 
20 1 7 0.09 5.04695 0.545896 -5.57636 
21 1 7 0.09 4.11175 -0.946171 -5.74921 
22 1 11 -0.28 5.76569 -1.28473 -4.55033 
23 1 7 0.09 5.92434 -2.39407 -4.72002 
24 1 7 0.09 6.74911 -0.834787 -4.39063 
25 1 14 0.62 4.87578 -1.12929 -3.26475 
26 1 17 -0.76 3.71197 -1.5851 -3.11632 
27 1 17 -0.76 5.49839 -0.566303 -2.28608 
28 2 3 -0.32 6.01198 -2.05048 0.249386 
29 2 4 0.44 5.46401 -1.00738 -0.948444 
30 2 4 0.44 5.18247 -2.28591 0.743662 
31 2 4 0.44 6.76229 -1.77385 0.89075 
32 3 2 -0.82 7.42143 10.8493 2.81037 
33 3 1 0.41 6.48686 10.8771 2.34344 
34 3 1 0.41 7.27221 11.482 3.63831 
35 4 2 -0.82 9.31215 9.63964 5.58944 
36 4 1 0.41 8.62834 10.3954 5.36337 
37 4 1 0.41 9.59122 9.69722 6.58032 
38 5 2 -0.82 -6.08403 -10.5846 0.69161 
39 5 1 0.41 -6.06396 -10.8459 -0.261248 
40 5 1 0.41 -5.84645 -11.4115 1.32259 
41 6 2 -0.82 -3.24127 -2.89501 -7.29677 
42 6 1 0.41 -2.53211 -2.38603 -7.89551 
43 6 1 0.41 -3.39928 -3.71653 -7.91525 
44 7 2 -0.82 -7.69585 -2.89865 6.5935 
45 7 1 0.41 -8.68313 -3.12987 6.59313 
46 7 1 0.41 -7.55039 -1.90378 6.862 
47 8 2 -0.82 0.889885 -1.91704 -0.860378 
48 8 1 0.41 0.330678 -2.51371 -0.228932 
49 8 1 0.41 0.86992 -2.21702 -1.83103 
50 9 2 -0.82 -1.03128 -8.71255 -1.72674 
51 9 1 0.41 -0.305169 -9.40561 -1.52606 
52 9 1 0.41 -1.93328 -8.94699 -1.26625 
53 10 2 -0.82 10.2857 9.15124 8.27957 
54 10 1 0.41 9.38794 8.97136 8.76323 
55 10 1 0.41 10.7982 8.29947 8.15037 
56 11 2 -0.82 -6.11942 -1.55212 -0.332084 
57 11 1 0.41 -5.25264 -2.03461 -0.62425 
58 11 1 0.41 -6.14209 -1.67423 0.674676 
59 12 2 -0.82 12.0164 -5.11388 4.77227 
60 12 1 0.41 -11.5564 -4.31753 4.79558 
61 12 1 0.41 -11.8081 -5.8374 4.14743 
62 13 2 -0.82 1.48124 -6.17007 -7.22587 
63 13 1 0.41 2.17873 -5.99694 -6.43838 
64 13 1 0.41 0.61636 -6.27819 -6.78805 
65 14 2 -0.82 10.9217 8.06097 -2.85965 
66 14 1 0.41 10.6614 8.74971 -3.57581 
67 14 1 0.41 10.8144 7.08726 -3.13318 
68 15 2 -0.82 0.226877 -9.09624 -11.2737 
69 15 1 0.41 0.444284 -9.92415 -11.8894 
70 15 1 0.41 1.12679 -8.85209 -10.8913 
71 16 2 -0.82 -6.46674 -5.92606 -11.6974 
72 16 1 0.41 -6.20995 -5.33711 -10.9198 
73 16 1 0.41 -7.45891 -5.86573 -11.9746 
74 17 2 -0.82 1.17341 -12.043 7.04569 
75 17 1 0.41 1.55634 11.3516 7.46264 
76 17 1 0.41 1.06821 12.1136 6.01565 
77 18 2 -0.82 9.13835 -6.34652 11.9235 
78 18 1 0.41 9.19561 -5.45199 -11.8115 
79 18 1 0.41 9.1767 -6.09865 10.9464 
80 19 2 -0.82 -2.2068 -9.50027 7.46192 
81 19 1 0.41 -2.1651 -8.8241 8.27345 
82 19 1 0.41 -2.11173 -8.97709 6.58921 
83 20 2 -0.82 0.277179 8.19692 1.40739 
84 20 1 0.41 0.386967 9.24171 1.42231 
85 20 1 0.41 -0.565574 8.06714 1.96003 
86 21 2 -0.82 10.5466 -3.68065 -8.99803 
87 21 1 0.41 9.90855 -3.18969 -8.37524 
88 21 1 0.41 11.4148 -4.09664 -8.56136 
89 22 2 -0.82 4.6087 4.17793 0.184221 
90 22 1 0.41 4.9995 3.50156 0.852415 
91 22 1 0.41 3.73233 3.79472 -0.16449 
92 23 2 -0.82 9.68931 -1.14987 6.65049 
93 23 1 0.41 9.29827 -1.5713 7.50744 
94 23 1 0.41 10.6869 -0.862622 6.69294 
95 24 2 -0.82 -3.43083 -1.65291 10.6523 
96 24 1 0.41 -3.43234 -1.3046 11.6352 
97 24 1 0.41 -3.15881 -0.775782 10.1663 
98 25 2 -0.82 -10.9752 9.05702 0.469147 
99 25 1 0.41 -11.5673 9.85418 0.858159 
100 25 1 0.41 -11.1181 8.99081 -0.558624 
101 26 2 -0.82 -4.32571 11.3024 -11.5625 
102 26 1 0.41 -4.565 -12.0246 -11.1554 
103 26 1 0.41 -3.3801 11.3169 -11.8899 
104 27 2 -0.82 0.536455 -0.631258 -6.88256 
105 27 1 0.41 1.28216 0.0376629 -6.97431 
106 27 1 0.41 0.101968 -0.704688 -5.94719 
107 28 2 -0.82 2.46315 -7.72743 1.41104 
108 28 1 0.41 1.83601 -7.75061 0.590662 
109 28 1 0.41 2.54471 -6.79358 1.8071 
110 29 2 -0.82 -3.40329 -9.41495 3.30819 
111 29 1 0.41 -4.08102 -8.91465 2.69894 
112 29 1 0.41 -3.27668 -8.86821 4.19633 
113 30 2 -0.82 -8.59946 -0.0267751 4.76866 
114 30 1 0.41 -8.01642 -0.508638 4.07645 
115 30 1 0.41 -8.41732 0.965282 4.72361 
116 31 2 -0.82 -1.07867 -0.399966 4.56651 
117 31 1 0.41 -0.987857 -1.36517 4.81165 
118 31 1 0.41 -1.92183 -0.39708 4.00569 
119 32 2 -0.82 8.76182 -9.85184 1.11572 
120 32 1 0.41 8.69023 -8.85283 0.913228 
121 32 1 0.41 7.82911 -10.185 1.22316 
122 33 2 -0.82 -2.32251 -10.7598 -11.5181 
123 33 1 0.41 -2.98063 -10.0674 -11.0625 
124 33 1 0.41 -1.4257 -10.3475 -11.7228 
125 34 2 -0.82 -6.01272 8.71388 0.827218 
126 34 1 0.41 -6.7996 9.1818 1.19762 
127 34 1 0.41 -5.55016 9.359 0.119581 
128 35 2 -0.82 -0.970777 10.2822 -11.0138 
129 35 1 0.41 -0.501795 11.1928 -10.8477 
130 35 1 0.41 -1.32724 9.89664 -10.1352 
131 36 2 -0.82 -11.3614 12.0962 5.69738 
132 36 1 0.41 -11.8521 -11.3573 5.37207 
133 36 1 0.41 -11.9206 11.3332 5.27701 
134 37 2 -0.82 -2.80466 -0.988112 0.140942 
135 37 1 0.41 -1.89612 -0.479064 0.167281 
136 37 1 0.41 -3.58139 -0.285398 0.117553 
137 38 2 -0.82 -5.42897 10.0418 10.4022 
138 38 1 0.41 -5.0968 10.2648 11.3751 
139 38 1 0.41 -5.0879 10.6864 9.72939 
140 39 2 -0.82 -3.41086 11.6511 -5.94096 
141 39 1 0.41 -4.33998 11.3827 -6.38352 
142 39 1 0.41 -2.84819 10.7969 -5.74718 
143 40 2 -0.82 -3.5567 -12.0449 -1.55506 
144 40 1 0.41 -3.66974 -11.1047 -1.20994 
145 40 1 0.41 -2.73097 -11.9331 -2.15239 
146 41 2 -0.82 -10.0166 3.83357 6.17935 
147 41 1 0.41 -9.92249 4.58963 5.51916 
148 41 1 0.41 -10.9262 3.45279 5.90788 
149 42 2 -0.82 -0.67534 3.85794 -5.83326 
150 42 1 0.41 0.0814194 3.74431 -5.15635 
151 42 1 0.41 -0.771317 4.77385 -6.25999 
152 43 2 -0.82 7.80712 -4.02909 -6.18672 
153 43 1 0.41 7.82904 -3.38105 -6.99079 
154 43 1 0.41 8.79691 -4.07638 -5.95625 
155 44 2 -0.82 -11.7588 4.02904 -2.06163 
156 44 1 0.41 -10.8267 4.37028 -1.73384 
157 44 1 0.41 -11.7873 3.04212 -1.71354 
158 45 2 -0.82 0.078991 2.40831 -8.25276 
159 45 1 0.41 -0.0519783 3.02788 -7.45954 
160 45 1 0.41 1.03035 2.00758 -8.00409 
161 46 2 -0.82 7.55356 9.6763 -9.99355 
162 46 1 0.41 8.1457 8.99252 -10.4906 
163 46 1 0.41 7.41364 9.23871 -9.08221 
164 47 2 -0.82 7.21795 -3.57435 -1.74989 
165 47 1 0.41 7.91778 -4.13142 -1.28686 
166 47 1 0.41 6.86339 -2.88461 -1.04441 
167 48 2 -0.82 -5.66254 5.98513 10.1767 
168 48 1 0.41 -5.30549 6.25963 11.1083 
169 48 1 0.41 -5.11633 6.47158 9.43964 
170 49 2 -0.82 2.50702 1.51884 -7.09294 
171 49 1 0.41 2.3793 1.73861 -6.11 
172 49 1 0.41 3.32822 2.08521 -7.33057 
173 50 2 -0.82 -11.2883 7.67374 2.85314 
174 50 1 0.41 -10.9079 7.95864 1.94447 
175 50 1 0.41 -11.8662 8.44441 3.15604 
176 51 2 -0.82 10.1123 -1.11584 -10.5663 
177 51 1 0.41 10.7024 -0.345714 -10.2581 
178 51 1 0.41 10.2667 -1.87798 -9.94461 
179 52 2 -0.82 2.00356 7.33429 5.05151 
180 52 1 0.41 1.71952 6.73517 5.84435 
181 52 1 0.41 1.30261 8.07424 5.06817 
182 53 2 -0.82 -10.4888 2.4205 -11.8631 
183 53 1 0.41 -10.87 2.31071 11.3959 
184 53 1 0.41 -9.96983 3.27948 -12.0102 
185 54 2 -0.82 3.77157 -11.4711 -0.11206 
186 54 1 0.41 4.17628 -11.3037 -1.03353 
187 54 1 0.41 4.13768 11.8376 0.17045 
188 55 2 -0.82 -10.4366 -1.11634 11.346 
189 55 1 0.41 -10.1758 -1.97869 10.8158 
190 55 1 0.41 -9.86467 -1.19883 -12.0747 
191 56 2 -0.82 -10.3807 -2.63722 7.45564 
192 56 1 0.41 -10.7042 -2.74619 6.45173 
193 56 1 0.41 -9.86086 -1.74052 7.51351 
194 57 2 -0.82 -9.79686 11.4529 2.75593 
195 57 1 0.41 -9.3445 12.0058 3.50901 
196 57 1 0.41 -10.7956 11.4387 2.7175 
197 58 2 -0.82 -11.8146 7.41219 8.08478 
198 58 1 0.41 -10.9171 7.29641 8.57024 
199 58 1 0.41 -11.5535 7.82227 7.12954 
200 59 2 -0.82 7.90924 4.77139 2.33061 
201 59 1 0.41 7.89082 4.3953 3.29555 
202 59 1 0.41 8.63174 5.50033 2.33131 
203 60 2 -0.82 -10.9708 5.47156 -10.6012 
204 60 1 0.41 -10.9167 5.53071 -9.58293 
205 60 1 0.41 -11.7985 4.85955 -10.8059 
206 61 2 -0.82 -7.06337 -6.90199 -1.65125 
207 61 1 0.41 -7.22124 -5.98104 -1.25758 
208 61 1 0.41 -7.9481 -7.13978 -2.10378 
209 62 2 -0.82 8.9292 -11.5337 -5.38904 
210 62 1 0.41 9.70738 -11.2086 -5.98655 
211 62 1 0.41 8.04947 -11.0079 -5.64177 
212 63 2 -0.82 8.54042 0.248911 0.992754 
213 63 1 0.41 8.71947 1.28197 0.859743 
214 63 1 0.41 8.06061 0.0464336 1.87625 
215 64 2 -0.82 5.60465 10.3753 -12.0942 
216 64 1 0.41 6.18587 10.3066 -11.2528 
217 64 1 0.41 5.29299 11.3435 11.8887 
218 65 2 -0.82 -5.7342 9.4274 -10.0443 
219 65 1 0.41 -5.39718 10.1304 -10.736 
220 65 1 0.41 -5.10276 9.60335 -9.26472 
221 66 2 -0.82 0.808089 11.7687 -2.695 
222 66 1 0.41 0.0979683 12.0727 -3.43244 
223 66 1 0.41 0.808806 10.779 -2.72122 
224 67 2 -0.82 -8.27286 -11.2634 9.88634 
225 67 1 0.41 -7.62931 -10.7005 9.30374 
226 67 1 0.41 -8.13515 11.9725 9.77659 
227 68 2 -0.82 -2.44136 9.38623 -5.31188 
228 68 1 0.41 -3.16225 8.66166 -5.32695 
229 68 1 0.41 -1.70809 9.18125 -6.04042 
230 69 2 -0.82 9.79285 -8.64425 5.95049 
231 69 1 0.41 8.80776 -8.93358 5.65691 
232 69 1 0.41 9.93125 -8.81907 6.95282 
233 70 2 -0.82 -8.42532 11.0266 -1.5072 
234 70 1 0.41 -8.40551 10.4194 -0.708757 
235 70 1 0.41 -7.99387 10.5913 -2.32688 
236 71 2 -0.82 9.90736 -3.47481 4.46178 
237 71 1 0.41 10.7763 -3.95746 4.36404 
238 71 1 0.41 9.91066 -2.85138 5.30669 
239 72 2 -0.82 -1.43358 5.09155 1.21264 
240 72 1 0.41 -2.26673 5.55961 1.64048 
241 72 1 0.41 -0.578332 5.07467 1.80599 
242 73 2 -0.82 -6.54781 -6.10359 3.00703 
243 73 1 0.41 -6.48351 -5.47038 3.83539 
244 73 1 0.41 -7.50368 -6.02882 2.68316 
245 74 2 -0.82 4.79398 6.4899 8.53778 
246 74 1 0.41 4.90941 5.63933 9.1815 
247 74 1 0.41 4.6176 7.31169 9.14122 
248 75 2 -0.82 9.96523 -9.92313 -9.25606 
249 75 1 0.41 9.27496 -10.7192 -9.07332 
250 75 1 0.41 10.3665 -10.1266 -10.2073 
251 76 2 -0.82 -9.36198 -7.7187 -9.45423 
252 76 1 0.41 -9.61562 -8.61448 -9.13293 
253 76 1 0.41 -10.1901 -7.14849 -9.34883 
254 77 2 -0.82 -10.5577 5.33288 -7.8841 
255 77 1 0.41 -10.0215 5.54514 -7.04586 
256 77 1 0.41 -11.5663 5.60778 -7.68743 
257 78 2 -0.82 -2.82491 11.2927 0.931094 
258 78 1 0.41 -3.45591 11.3938 0.11831 
259 78 1 0.41 -1.99373 10.9497 0.428698 
260 79 2 -0.82 -0.0635553 -9.59971 1.23005 
261 79 1 0.41 -0.726379 -10.3045 1.61315 
262 79 1 0.41 0.263143 -9.97134 0.341459 
263 80 2 -0.82 -9.22396 -2.97913 9.98371 
264 80 1 0.41 -9.67795 -2.93546 9.02797 
265 80 1 0.41 -8.21592 -2.9959 9.99188 
266 81 2 -0.82 -7.83934 -10.6682 -3.77321 
267 81 1 0.41 -7.23651 -10.2578 -3.02344 
268 81 1 0.41 -7.81607 -9.95349 -4.47828 
269 82 2 -0.82 0.366986 -6.63318 6.24646 
270 82 1 0.41 0.250441 -6.28896 5.25422 
271 82 1 0.41 1.016 -7.43651 6.25446 
272 83 2 -0.82 1.97743 9.78598 -5.3649 
273 83 1 0.41 1.35582 9.00844 -5.74311 
274 83 1 0.41 2.10183 9.64082 -4.33961 
275 84 2 -0.82 -1.64044 -7.50089 -12.0928 
276 84 1 0.41 -2.05587 -8.03366 -11.3377 
277 84 1 0.41 -0.727424 -7.95016 -11.9507 
278 85 2 -0.82 -11.5258 -9.61605 2.49942 
279 85 1 0.41 -10.5126 -9.54554 2.23427 
280 85 1 0.41 -12.1243 -9.95938 1.72573 
281 86 2 -0.82 10.7548 -3.79361 -5.05499 
282 86 1 0.41 10.6651 -4.60668 -5.72207 
283 86 1 0.41 11.4505 -3.15785 -5.37888 
284 87 2 -0.82 6.54453 -0.111588 8.50572 
285 87 1 0.41 6.38701 -1.12872 8.20757 
286 87 1 0.41 7.4837 -0.0522657 8.93431 
287 88 2 -0.82 -11.8027 8.48172 11.6063 
288 88 1 0.41 -10.883 8.45258 12.0495 
289 88 1 0.41 -11.9304 9.40392 11.1809 
290 89 2 -0.82 0.262277 -8.64549 4.37408 
291 89 1 0.41 0.512477 -9.43513 3.77286 
292 89 1 0.41 0.554172 -8.89736 5.31798 
293 90 2 -0.82 1.18522 7.79525 -7.3214 
294 90 1 0.41 1.77701 8.36565 -7.8731 
295 90 1 0.41 1.45473 6.88537 -7.71649 
296 91 2 -0.82 -11.604 -6.90246 2.76246 
297 91 1 0.41 11.9241 -6.90223 2.03236 
298 91 1 0.41 -11.334 -7.85836 2.86214 
299 92 2 -0.82 1.93453 9.7781 -8.92065 
300 92 1 0.41 1.51325 10.5917 -9.3586 
301 92 1 0.41 2.48026 9.30241 -9.63295 
302 93 2 -0.82 -8.00078 -8.24216 -11.73 
303 93 1 0.41 -7.17409 -7.65074 -11.8363 
304 93 1 0.41 -8.57377 -8.03363 -10.8575 
305 94 2 -0.82 -4.7236 0.249453 -4.33274 
306 94 1 0.41 -4.14971 -0.51628 -4.7465 
307 94 1 0.41 -4.09174 1.05288 -4.11561 
308 95 2 -0.82 -0.557371 0.456376 -0.270371 
309 95 1 0.41 0.00642664 -0.312463 -0.688871 
310 95 1 0.41 -0.87371 1.10351 -1.00107 
311 96 2 -0.82 0.346347 4.23754 -9.98146 
312 96 1 0.41 -0.0345707 3.85223 -10.88 
313 96 1 0.41 0.125859 3.52823 -9.25616 
314 97 2 -0.82 -8.06875 9.14026 4.45662 
315 97 1 0.41 -7.72357 8.61636 5.25836 
316 97 1 0.41 -8.01585 8.4169 3.69006 
317 98 2 -0.82 4.59246 2.18135 -1.87992 
318 98 1 0.41 5.55536 2.34553 -1.48834 
319 98 1 0.41 4.34466 1.23709 -1.60835 
320 99 2 -0.82 -1.13013 -1.66681 -8.75071 
321 99 1 0.41 -0.381297 -1.62299 -8.05904 
322 99 1 0.41 -0.788869 -2.01339 -9.64724 
323 100 2 -0.82 -0.608855 9.57755 5.62967 
324 100 1 0.41 -0.551147 10.4636 5.10726 
325 100 1 0.41 -1.0292 8.86941 5.0319 
326 101 2 -0.82 4.07768 -10.3505 4.99013 
327 101 1 0.41 3.32052 -9.90856 5.48782 
328 101 1 0.41 4.02584 -10.0417 3.96996 
329 102 2 -0.82 10.2612 -3.9766 -11.5489 
330 102 1 0.41 9.78654 -3.086 -11.6889 
331 102 1 0.41 10.5562 -3.89753 -10.5652 
332 103 2 -0.82 -7.1139 5.1284 -3.80923 
333 103 1 0.41 -7.1857 4.10924 -3.65942 
334 103 1 0.41 -6.14868 5.27796 -3.68831 
335 104 2 -0.82 -7.50099 0.732486 -1.15699 
336 104 1 0.41 -8.4179 0.250617 -1.37509 
337 104 1 0.41 -6.9032 -0.0844124 -1.00202 
338 105 2 -0.82 -4.28068 -3.63425 -10.3171 
339 105 1 0.41 -5.12047 -3.05759 -10.0985 
340 105 1 0.41 -3.62492 -2.94344 -10.6988 
341 106 2 -0.82 -6.64861 -2.61425 -9.72219 
342 106 1 0.41 -7.25307 -3.27517 -9.23425 
343 106 1 0.41 -7.26728 -1.98559 -10.3099 
344 107 2 -0.82 5.69231 -2.86499 8.12979 
345 107 1 0.41 4.6159 -2.92625 8.18102 
346 107 1 0.41 6.0008 -3.6071 8.74917 
347 108 2 -0.82 11.6591 3.11162 6.04967 
348 108 1 0.41 11.4662 3.16354 5.05743 
349 108 1 0.41 10.9104 3.75621 6.35822 
350 109 2 -0.82 -0.10456 -6.81643 0.820805 
351 109 1 0.41 -0.437908 -7.02305 -0.18444 
352 109 1 0.41 -0.0185085 -7.80553 1.05568 
353 110 2 -0.82 3.62647 9.09058 -10.9861 
354 110 1 0.41 3.29182 8.52328 -11.7933 
355 110 1 0.41 4.55292 9.40292 -11.3401 
356 111 2 -0.82 9.00162 0.270999 9.80662 
357 111 1 0.41 8.5212 -0.207992 10.5675 
358 111 1 0.41 10.0054 -0.0354573 9.9203 
359 112 2 -0.82 7.05076 -10.2582 -6.91655 
360 112 1 0.41 7.32926 -9.70728 -7.67163 
361 112 1 0.41 6.17106 -9.88456 -6.56592 
362 113 2 -0.82 -4.82255 -5.68299 -3.76763 
363 113 1 0.41 -4.58851 -6.31369 -3.01168 
364 113 1 0.41 -5.71799 -5.27226 -3.60664 
365 114 2 -0.82 -9.61254 3.75371 8.94272 
366 114 1 0.41 -10.2402 3.93673 8.1027 
367 114 1 0.41 -9.54483 4.68308 9.38004 
368 115 2 -0.82 -6.40051 -9.62444 8.78484 
369 115 1 0.41 -6.00637 -9.10983 7.99626 
370 115 1 0.41 -5.65025 -9.73425 9.45098 
371 116 2 -0.82 9.39337 -2.29239 -3.30624 
372 116 1 0.41 9.89578 -3.00907 -3.85377 
373 116 1 0.41 8.49099 -2.635 -2.96187 
374 117 2 -0.82 7.62978 -2.55725 2.78906 
375 117 1 0.41 8.46325 -2.63554 3.37557 
376 117 1 0.41 6.75899 -2.77539 3.28974 
377 118 2 -0.82 8.85495 -5.7067 9.4792 
378 118 1 0.41 8.25031 -6.51372 9.26224 
379 118 1 0.41 9.54165 -5.79853 8.66655 
380 119 2 -0.82 4.03953 3.67775 4.56475 
381 119 1 0.41 4.44325 4.49711 4.06144 
382 119 1 0.41 3.69089 3.98083 5.4905 
383 120 2 -0.82 9.61405 11.1838 -1.25426 
384 120 1 0.41 9.07107 12 -0.911288 
385 120 1 0.41 10.2848 11.5093 -1.93948 
386 121 2 -0.82 4.45797 10.3504 0.737868 
387 121 1 0.41 3.75439 9.6587 0.689782 
388 121 1 0.41 5.3776 9.90571 0.477241 
389 122 2 -0.82 -4.03275 6.4829 -5.24023 
390 122 1 0.41 -3.68701 5.70618 -5.76452 
391 122 1 0.41 -4.27078 6.1246 -4.34841 
392 123 2 -0.82 -6.11982 -9.3793 -2.08184 
393 123 1 0.41 -6.56461 -8.46112 -1.83691 
394 123 1 0.41 -5.28086 -9.17189 -2.64925 
395 124 2 -0.82 -5.83834 10.9504 -6.90522 
396 124 1 0.41 -6.2717 11.5355 -7.62335 
397 124 1 0.41 -6.45749 10.8048 -6.12036 
398 125 2 -0.82 -6.31048 -9.58012 -8.18895 
399 125 1 0.41 -6.96487 -10.3901 -8.11468 
400 125 1 0.41 -5.43024 -9.9222 -7.74219 
401 126 2 -0.82 6.13308 2.45107 7.74584 
402 126 1 0.41 5.66969 2.31751 6.83013 
403 126 1 0.41 6.37413 1.47319 8.06103 
404 127 2 -0.82 -5.95638 9.18326 -3.62686 
405 127 1 0.41 -5.25387 9.15982 -4.36448 
406 127 1 0.41 -6.55535 8.39867 -3.44569 
407 128 2 -0.82 -9.93428 -2.2003 0.996605 
408 128 1 0.41 -10.2368 -3.15474 0.833619 
409 128 1 0.41 -9.39445 -2.33373 1.89393 
410 129 2 -0.82 -0.599208 -9.13429 -8.11073 
411 129 1 0.41 -0.142152 -8.26669 -7.83294 
412 129 1 0.41 -0.150144 -9.40595 -8.97668 
413 130 2 -0.82 -9.93774 8.08113 -8.98782 
414 130 1 0.41 -10.188 8.21415 -7.97617 
415 130 1 0.41 -9.33147 7.31011 -8.97351 
416 131 2 -0.82 7.79668 6.82745 -4.75763 
417 131 1 0.41 7.69929 7.27238 -5.68381 
418 131 1 0.41 8.73752 6.42138 -4.68686 
419 132 2 -0.82 0.855094 4.50418 -3.67977 
420 132 1 0.41 0.633884 5.50489 -3.59131 
421 132 1 0.41 1.81164 4.36487 -3.32489 
422 133 2 -0.82 5.13901 -6.5905 12.0219 
423 133 1 0.41 5.73742 -7.44297 12.0112 
424 133 1 0.41 5.42562 -6.10819 -11.377 
425 134 2 -0.82 -7.06872 7.29278 -11.0263 
426 134 1 0.41 -7.62065 6.77117 -10.3404 
427 134 1 0.41 -6.47041 8.06587 -10.6254 
428 135 2 -0.82 6.68566 -9.43839 -9.9283 
429 135 1 0.41 6.20903 -8.52445 -9.87273 
430 135 1 0.41 7.272 -9.34754 -10.7701 
431 136 2 -0.82 -1.5271 2.19897 1.75077 
432 136 1 0.41 -1.31698 3.11338 1.32422 
433 136 1 0.41 -1.07944 1.43076 1.20698 
434 137 2 -0.82 -7.8388 6.35048 -8.66287 
435 137 1 0.41 -8.29088 5.42902 -8.46125 
436 137 1 0.41 -7.56838 6.82076 -7.81624 
437 138 2 -0.82 -3.39826 11.5764 5.84128 
438 138 1 0.41 -3.56157 10.9523 5.0319 
439 138 1 0.41 -3.50192 -11.7309 5.44531 
440 139 2 -0.82 -3.55129 -8.46838 -3.20665 
441 139 1 0.41 -2.93334 -9.21199 -2.93122 
442 139 1 0.41 -3.27223 -8.21263 -4.18471 
443 140 2 -0.82 -4.62464 7.81431 8.29885 
444 140 1 0.41 -3.76062 8.23687 7.94332 
445 140 1 0.41 -5.07633 8.61141 8.80801 
446 141 2 -0.82 11.3569 -10.3245 -11.7705 
447 141 1 0.41 11.5946 -9.30672 -11.8439 
448 141 1 0.41 10.6372 -10.5674 11.795 
449 142 2 -0.82 -0.182706 10.6952 0.120002 
450 142 1 0.41 0.0787405 10.7978 -0.883063 
451 142 1 0.41 0.461532 11.2119 0.768366 
452 143 2 -0.82 -11.3591 -2.27346 -5.93082 
453 143 1 0.41 -11.0801 -2.09449 -6.91817 
454 143 1 0.41 -11.0428 -1.49896 -5.31151 
455 144 2 -0.82 -9.60505 2.83091 -7.61442 
456 144 1 0.41 -10.0767 3.72667 -7.51196 
457 144 1 0.41 -9.42575 2.53677 -6.62551 
458 145 2 -0.82 3.09884 0.647791 1.91889 
459 145 1 0.41 2.40136 0.952675 2.62299 
460 145 1 0.41 3.94143 1.14351 2.13563 
461 146 2 -0.82 -1.92298 6.91188 -1.2135 
462 146 1 0.41 -1.58905 6.33326 -0.450419 
463 146 1 0.41 -1.31963 6.73126 -2.0345 
464 147 2 -0.82 -10.8137 8.35877 -2.42824 
465 147 1 0.41 -11.7814 8.0198 -2.29525 
466 147 1 0.41 -10.5153 8.5881 -3.36427 
467 148 2 -0.82 1.35549 -4.81258 -9.65083 
468 148 1 0.41 1.50021 -5.26238 -8.78311 
469 148 1 0.41 0.389032 -4.67119 -9.85836 
470 149 2 -0.82 1.31134 -5.22925 10.5521 
471 149 1 0.41 2.05636 -4.73773 10.089 
472 149 1 0.41 0.470047 -5.43323 9.9463 
473 150 2 -0.82 0.782607 -11.1157 11.3221 
474 150 1 0.41 0.166632 -11.5089 10.6122 
475 150 1 0.41 1.39018 -11.9351 11.5851 
476 151 2 -0.82 -0.872314 9.599 -7.50044 
477 151 1 0.41 -0.570662 10.5659 -7.42113 
478 151 1 0.41 -0.244784 8.84952 -7.79816 
479 152 2 -0.82 -7.00848 7.63967 6.44974 
480 152 1 0.41 -6.0909 7.83775 6.91666 
481 152 1 0.41 -7.81201 7.97407 7.06295 
482 153 2 -0.82 3.07505 -9.33953 10.8138 
483 153 1 0.41 2.9243 -8.59045 11.4424 
484 153 1 0.41 2.22015 -9.97448 10.7103 
485 154 2 -0.82 1.06628 -10.5695 -0.983606 
486 154 1 0.41 0.694811 -11.3096 -1.58021 
487 154 1 0.41 2.07855 -10.7164 -0.786746 
488 155 2 -0.82 -4.04105 5.19745 -9.52117 
489 155 1 0.41 -4.92155 5.06816 -9.02175 
490 155 1 0.41 -3.92109 4.39763 -10.1519 
491 156 2 -0.82 8.61999 6.43605 -9.62857 
492 156 1 0.41 9.48639 6.99187 -9.73151 
493 156 1 0.41 8.75804 5.38389 -9.6807 
494 157 2 -0.82 -4.51602 6.19348 -2.58837 
495 157 1 0.41 -3.68385 6.38776 -2.00615 
496 157 1 0.41 -5.40853 6.47013 -2.11625 
497 158 2 -0.82 11.2632 3.56331 -11.0857 
498 158 1 0.41 10.5351 3.73732 -11.7995 
499 158 1 0.41 11.9514 2.97932 -11.5283 
500 159 2 -0.82 7.97282 -0.920809 -12.1052 
501 159 1 0.41 7.44659 -1.82065 -12.0836 
502 159 1 0.41 8.77042 -0.991137 -11.4404 
503 160 2 -0.82 -9.68431 5.75428 4.24072 
504 160 1 0.41 -10.1716 6.57595 4.57398 
505 160 1 0.41 -8.86721 5.98826 3.71164 
506 161 2 -0.82 -4.86822 -9.58908 -10.4955 
507 161 1 0.41 -5.52254 -9.83924 -9.71984 
508 161 1 0.41 -4.3213 -8.89526 -9.99474 
509 162 2 -0.82 -10.449 -4.88772 0.638914 
510 162 1 0.41 -9.76045 -5.63218 0.775328 
511 162 1 0.41 -11.2563 -5.22598 0.0410528 
512 163 2 -0.82 -9.27719 -5.79535 3.61442 
513 163 1 0.41 -10.1064 -5.94419 3.0238 
514 163 1 0.41 -9.2675 -6.56708 4.30709 
515 164 2 -0.82 8.94755 2.966 0.706418 
516 164 1 0.41 9.72929 3.44725 0.245562 
517 164 1 0.41 8.38578 3.57738 1.34343 
518 165 2 -0.82 7.05599 -6.52107 -9.67075 
519 165 1 0.41 6.57039 -5.7385 -9.14981 
520 165 1 0.41 7.79204 -6.05133 -10.2531 
521 166 2 -0.82 -2.50978 -8.31316 -9.64877 
522 166 1 0.41 -2.06341 -8.68157 -8.80114 
523 166 1 0.41 -2.51883 -7.36829 -9.35787 
524 167 2 -0.82 4.7998 -8.23012 -7.02755 
525 167 1 0.41 5.2727 -7.51912 -6.51772 
526 167 1 0.41 4.53037 -7.91325 -7.97172 
527 168 2 -0.82 -1.21996 -5.14173 -10.4165 
528 168 1 0.41 -1.85532 -5.33697 -9.62192 
529 168 1 0.41 -1.30708 -5.95557 -11.0496 
530 169 2 -0.82 4.07827 8.39024 6.57769 
531 169 1 0.41 4.32943 7.87836 7.43299 
532 169 1 0.41 3.46699 7.83725 5.89997 
533 170 2 -0.82 2.54103 -5.73923 -2.0329 
534 170 1 0.41 3.47438 -5.40178 -1.71093 
535 170 1 0.41 1.93981 -4.97145 -2.23641 
536 171 2 -0.82 -5.40023 -1.2122 -7.49003 
537 171 1 0.41 -5.81427 -1.49785 -8.32346 
538 171 1 0.41 -4.82496 -2.03589 -7.28467 
539 172 2 -0.82 -1.03286 -3.14047 9.32372 
540 172 1 0.41 -1.90394 -2.79314 9.78169 
541 172 1 0.41 -1.09335 -4.12972 9.48263 
542 173 2 -0.82 -1.1015 9.19505 -2.73861 
543 173 1 0.41 -1.51103 9.18044 -1.74251 
544 173 1 0.41 -1.68093 9.6561 -3.45628 
545 174 2 -0.82 -8.49292 -6.85172 0.949594 
546 174 1 0.41 -8.7935 -7.71198 1.43309 
547 174 1 0.41 -7.66069 -6.98898 0.329224 
548 175 2 -0.82 -0.171619 -3.25642 4.42056 
549 175 1 0.41 -0.784146 -4.00503 4.09274 
550 175 1 0.41 -0.0945144 -3.29483 5.45701 
551 176 2 -0.82 6.41885 10.6944 -4.77085 
552 176 1 0.41 5.87497 10.1314 -5.43982 
553 176 1 0.41 7.35514 10.8867 -5.15719 
554 177 2 -0.82 -5.62376 7.79112 -7.03632 
555 177 1 0.41 -5.06749 7.37033 -6.25207 
556 177 1 0.41 -4.97592 8.54471 -7.34307 
557 178 2 -0.82 12.0252 -4.6719 8.58627 
558 178 1 0.41 -11.6327 -3.97248 8.16656 
559 178 1 0.41 11.8555 -5.27671 7.83161 
560 179 2 -0.82 -3.86474 -3.29591 7.49749 
561 179 1 0.41 -4.56115 -3.74223 8.0682 
562 179 1 0.41 -3.6303 -3.89909 6.69491 
563 180 2 -0.82 -7.3758 3.53764 -8.61497 
564 180 1 0.41 -6.71526 3.10993 -7.92275 
565 180 1 0.41 -8.37954 3.25293 -8.44042 
566 181 2 -0.82 -2.6285 3.36933 9.64748 
567 181 1 0.41 -3.6547 3.21709 9.83167 
568 181 1 0.41 -2.41321 4.36527 9.56408 
569 182 2 -0.82 9.66099 -3.75582 0.135117 
570 182 1 0.41 10.3293 -2.98183 0.135441 
571 182 1 0.41 9.20757 -3.71802 1.05762 
572 183 2 -0.82 4.58694 10.838 -8.37651 
573 183 1 0.41 5.03602 10.3481 -7.589 
574 183 1 0.41 3.9401 10.1151 -8.7747 
575 184 2 -0.82 6.83991 -7.59424 8.72236 
576 184 1 0.41 6.40132 -7.28599 7.84485 
577 184 1 0.41 6.70335 -8.61198 8.85576 
578 185 2 -0.82 -0.792884 -5.81635 8.72373 
579 185 1 0.41 -1.42602 -6.63651 8.90892 
580 185 1 0.41 -0.293954 -6.14526 7.92788 
581 186 2 -0.82 -9.68169 -4.6245 -7.24936 
582 186 1 0.41 -9.90503 -4.22467 -6.31254 
583 186 1 0.41 -10.1153 -5.54671 -7.37829 
584 187 2 -0.82 10.4796 2.74278 -3.83707 
585 187 1 0.41 11.192 3.02346 -3.20013 
586 187 1 0.41 10.1087 1.82538 -3.5286 
587 188 2 -0.82 2.42607 -9.95704 -9.70321 
588 188 1 0.41 3.23536 -10.5677 -9.91601 
589 188 1 0.41 2.78991 -9.13174 -9.22997 
590 189 2 -0.82 -9.42918 -8.10927 -2.35156 
591 189 1 0.41 -10.4532 -8.39343 -2.22883 
592 189 1 0.41 -8.98243 -8.90831 -1.83263 
593 190 2 -0.82 1.4543 11.6458 2.03731 
594 190 1 0.41 2.07124 -11.958 1.60524 
595 190 1 0.41 2.00782 10.791 2.25035 
596 191 2 -0.82 10.7416 -6.0653 -6.55915 
597 191 1 0.41 10.0534 -6.25671 -7.37853 
598 191 1 0.41 11.3738 -6.85142 -6.70064 
599 192 2 -0.82 6.42266 6.12666 0.522153 
600 192 1 0.41 5.7239 5.42011 0.254716 
601 192 1 0.41 6.9734 5.66383 1.25215 
602 193 2 -0.82 12.1212 -8.24014 9.93309 
603 193 1 0.41 -11.5691 -7.61038 10.4149 
604 193 1 0.41 -11.8225 -9.25027 10.0439 
605 194 2 -0.82 -11.3053 5.17057 -4.60537 
606 194 1 0.41 -11.4003 4.99014 -3.62861 
607 194 1 0.41 12.1036 5.66699 -4.958 
608 195 2 -0.82 -0.935013 6.43115 -6.64168 
609 195 1 0.41 -1.56547 6.60925 -7.44742 
610 195 1 0.41 -0.0581084 6.93268 -6.75899 
611 196 2 -0.82 -11.4077 -6.11196 -9.28953 
612 196 1 0.41 -11.6876 -6.41137 -10.21 
613 196 1 0.41 -11.9005 -6.62579 -8.56781 
614 197 2 -0.82 7.80829 7.77268 4.23424 
615 197 1 0.41 8.294 8.46654 4.78333 
616 197 1 0.41 8.26426 7.75033 3.34641 
617 198 2 -0.82 -6.75502 3.2762 -11.2647 
618 198 1 0.41 -6.81876 3.37349 -10.2019 
619 198 1 0.41 -7.47697 3.8769 -11.5709 
620 199 2 -0.82 4.69063 6.34893 -11.3054 
621 199 1 0.41 5.59762 5.88573 -11.5057 
622 199 1 0.41 4.73768 7.16386 -10.713 
623 200 2 -0.82 -8.37888 1.42832 10.0917 
624 200 1 0.41 -8.60307 2.31983 9.63186 
625 200 1 0.41 -8.79221 1.43855 11.0128 
626 201 2 -0.82 -3.29184 5.72076 4.59936 
627 201 1 0.41 -4.12032 5.93599 5.16819 
628 201 1 0.41 -3.2683 4.72843 4.56346 
629 202 2 -0.82 -8.23462 2.80446 4.26578 
630 202 1 0.41 -7.78041 3.60874 3.82123 
631 202 1 0.41 -9.06841 3.02814 4.85519 
632 203 2 -0.82 -11.0073 -10.6238 9.93736 
633 203 1 0.41 -9.96555 -10.6402 9.98768 
634 203 1 0.41 -11.3935 -11.5169 9.91019 
635 204 2 -0.82 4.6038 1.23136 5.67735 
636 204 1 0.41 4.33876 2.0615 5.16679 
637 204 1 0.41 3.97275 1.00413 6.43475 
638 205 2 -0.82 -1.21713 6.42319 6.84318 
639 205 1 0.41 -1.82682 6.05943 6.06684 
640 205 1 0.41 -1.41535 7.38866 7.09896 
641 206 2 -0.82 7.32158 -8.36807 11.899 
642 206 1 0.41 7.9535 -7.52434 11.8139 
643 206 1 0.41 7.30709 -9.01532 11.1106 
644 207 2 -0.82 -10.4926 -10.2344 -9.02015 
645 207 1 0.41 -10.6587 -11.0006 -9.66906 
646 207 1 0.41 -9.56213 -10.501 -8.63604 
647 208 2 -0.82 -9.17294 4.55898 -1.5885 
648 208 1 0.41 -8.71096 3.89326 -0.99487 
649 208 1 0.41 -8.60721 5.34678 -1.88472 
650 209 2 -0.82 -8.94721 -5.04425 11.8026 
651 209 1 0.41 -9.86143 -5.48227 11.5426 
652 209 1 0.41 -8.76766 -4.09802 11.4496 
653 210 2 -0.82 -1.64962 -11.2428 2.58065 
654 210 1 0.41 -2.34778 -10.5881 3.00202 
655 210 1 0.41 -2.12765 -11.924 1.99582 
656 211 2 -0.82 4.92757 3.22756 -7.9551 
657 211 1 0.41 5.78716 3.06567 -7.3563 
658 211 1 0.41 4.88886 2.43132 -8.66706 
659 212 2 -0.82 -9.59653 -8.15031 5.06733 
660 212 1 0.41 -10.5948 -8.48494 5.0709 
661 212 1 0.41 -9.11051 -8.78189 5.6707 
662 213 2 -0.82 4.62948 9.03246 -6.36897 
663 213 1 0.41 4.6917 8.05864 -6.55147 
664 213 1 0.41 3.79177 9.26086 -5.80605 
665 214 2 -0.82 -2.72201 -1.48343 -5.03581 
666 214 1 0.41 -2.65116 -1.60633 -6.05127 
667 214 1 0.41 -3.12873 -2.30886 -4.55728 
668 215 2 -0.82 -0.664462 -3.73075 0.675889 
669 215 1 0.41 -0.429446 -4.723 0.628928 
670 215 1 0.41 -1.3476 -3.50952 1.41753 
671 216 2 -0.82 -1.91123 8.19439 3.64145 
672 216 1 0.41 -2.47037 7.34757 3.9337 
673 216 1 0.41 -2.5075 9.02218 3.34607 
674 217 2 -0.82 -1.43827 5.93984 9.44953 
675 217 1 0.41 -1.76409 6.77862 9.94955 
676 217 1 0.41 -1.37437 6.06479 8.37586 
677 218 2 -0.82 7.54379 3.28841 -3.76925 
678 218 1 0.41 8.43472 3.38225 -4.21378 
679 218 1 0.41 7.58421 2.52972 -3.05276 
680 219 2 -0.82 0.17804 3.67971 6.68188 
681 219 1 0.41 -0.35637 2.79923 6.59827 
682 219 1 0.41 -0.283244 4.26461 7.39467 
683 220 2 -0.82 -3.19195 -1.94584 2.66291 
684 220 1 0.41 -2.83764 -1.49273 1.8272 
685 220 1 0.41 -3.7305 -2.8544 2.40169 
686 221 2 -0.82 9.37994 4.49021 11.204 
687 221 1 0.41 9.99143 5.18309 10.7803 
688 221 1 0.41 8.95262 3.89488 10.4518 
689 222 2 -0.82 8.49262 -2.75485 8.44396 
690 222 1 0.41 8.89402 -3.66211 8.21852 
691 222 1 0.41 7.5047 -2.84276 8.49935 
692 223 2 -0.82 9.45612 8.77948 -0.628963 
693 223 1 0.41 9.52362 9.74273 -0.985085 
694 223 1 0.41 10.1415 8.20627 -1.14211 
695 224 2 -0.82 7.4165 9.21328 9.42612 
696 224 1 0.41 7.59986 8.81949 10.3337 
697 224 1 0.41 6.59142 8.58248 9.22614 
698 225 2 -0.82 6.51903 -3.2801 -11.9777 
699 225 1 0.41 5.56789 -3.28464 -11.6016 
700 225 1 0.41 6.43612 -3.91792 11.4666 
701 226 2 -0.82 -10.0463 -1.48227 -8.46046 
702 226 1 0.41 -9.92042 -2.27766 -9.11199 
703 226 1 0.41 -10.5094 -0.655354 -8.86491 
704 227 2 -0.82 0.172302 -4.9168 -4.18892 
705 227 1 0.41 0.455448 -3.92478 -4.01987 
706 227 1 0.41 -0.549289 -5.186 -3.43949 
707 228 2 -0.82 -5.71624 1.4117 -7.75965 
708 228 1 0.41 -4.87282 1.76094 -8.20465 
709 228 1 0.41 -5.49235 0.435364 -7.57153 
710 229 2 -0.82 10.2498 -6.25877 -3.13672 
711 229 1 0.41 10.6007 -7.17887 -3.42355 
712 229 1 0.41 9.99476 -5.74153 -3.99738 
713 230 2 -0.82 -7.79057 9.9505 9.82001 
714 230 1 0.41 -6.73374 9.82107 9.94337 
715 230 1 0.41 -8.28358 9.67763 10.7241 
716 231 2 -0.82 5.1677 9.32015 4.17651 
717 231 1 0.41 4.83259 8.83008 5.07741 
718 231 1 0.41 6.10604 8.97674 3.90318 
719 232 2 -0.82 -5.53111 3.14512 10.1301 
720 232 1 0.41 -5.83718 4.11815 10.0857 
721 232 1 0.41 -5.36503 2.94106 11.1059 