ITEM: TIMESTEP
0
ITEM: NUMBER OF ATOMS
1429
ITEM: BOX BOUNDS pp pp pp
-1.2124689999999999e+01 1.2124689999999999e+01
-1.2124689999999999e+01 1.2124689999999999e+01
-1.2124689999999999e+01 1.2124689999999999e+01
ITEM: ATOMS id mol type q x y z 
1 1 9 0.51 1.03322 -4.51725 -3.75374 
2 1 16 -0.51 0.0524915 -3.92958 -3.33657 
3 1 15 -0.47 1.13892 -4.82954 -5.05357 
4 1 5 0.31 1.94811 -5.23645 -5.46726 
5 1 13 -0.11 -0.0402569 -4.69004 -5.84896 
6 1 8 0.09 -0.171271 -3.64267 -6.19539 
7 1 8 0.09 0.0473391 -5.39454 -6.70474 
8 1 8 0.09 -0.96722 -4.94307 -5.2803 
9 1 13 -0.27 0.388996 -7.28018 -1.9513 
10 1 8 0.09 1.20129 -8.01885 -2.06765 
11 1 8 0.09 0.144564 -6.90676 -2.96587 
12 1 8 0.09 -0.498634 -7.76497 -1.52273 
13 1 9 0.51 0.840328 -6.18871 -1.02571 
14 1 16 -0.51 0.548573 -6.24715 0.165315 
15 1 15 -0.47 1.52209 -5.14843 -1.49647 
16 1 5 0.31 1.66368 -4.37459 -0.896343 
17 1 10 0.07 2.12934 -4.92255 -2.79842 
18 1 6 0.09 2.69625 -4.03558 -2.65223 
19 1 12 -0.18 3.12703 -5.97232 -3.37633 
20 1 7 0.09 2.59617 -6.82598 -3.86167 
21 1 7 0.09 3.68094 -5.45802 -4.18429 
22 1 11 -0.21 4.14785 -6.52464 -2.32916 
23 1 7 0.09 3.57419 -6.97377 -1.52447 
24 1 7 0.09 4.72751 -7.34859 -2.78786 
25 1 20 0.75 5.11202 -5.60541 -1.61545 
26 1 18 -0.55 4.78752 -4.72475 -0.757775 
27 1 19 -0.61 6.32648 -5.84869 -1.82297 
28 2 2 -0.82 8.04368 -4.76863 -0.373225 
29 1 5 0.44 6.92155 -5.40764 -1.23239 
30 2 1 0.41 7.59397 -3.99291 0.0902865 
31 2 1 0.41 8.73906 -4.38163 -0.983365 
32 3 2 -0.82 5.50319 4.57668 9.74026 
33 3 1 0.41 4.90081 4.79527 10.5332 
34 3 1 0.41 6.29786 4.0178 10.0837 
35 4 2 -0.82 -11.3859 8.43105 5.18823 
36 4 1 0.41 -11.1655 7.94749 6.05858 
37 4 1 0.41 11.8317 8.51813 5.06749 
38 5 2 -0.82 6.74907 -11.2427 10.3566 
39 5 1 0.41 6.70273 11.9496 10.5304 
40 5 1 0.41 7.67788 -10.8037 10.4743 
41 6 2 -0.82 5.21101 10.9989 -3.75149 
42 6 1 0.41 5.07503 10.4144 -2.91856 
43 6 1 0.41 4.3352 11.436 -4.06184 
44 7 2 -0.82 -11.4079 0.392548 -4.92347 
45 7 1 0.41 12.1116 1.07882 -5.13937 
46 7 1 0.41 -10.6873 0.509944 -5.64302 
47 8 2 -0.82 -4.54908 11.851 -0.737092 
48 8 1 0.41 -4.89813 12.0029 0.222976 
49 8 1 0.41 -3.51531 11.8567 -0.697951 
50 9 2 -0.82 3.53391 7.30283 -7.80209 
51 9 1 0.41 3.52876 8.3253 -7.7552 
52 9 1 0.41 2.57278 7.00925 -8.07413 
53 10 2 -0.82 1.64436 -3.45922 8.77595 
54 10 1 0.41 2.40899 -2.9496 9.24096 
55 10 1 0.41 1.15337 -2.78516 8.18304 
56 11 2 -0.82 1.89339 -7.07523 5.30674 
57 11 1 0.41 1.9031 -6.5577 6.19663 
58 11 1 0.41 1.62111 -8.04583 5.50455 
59 12 2 -0.82 0.993247 11.677 -5.65261 
60 12 1 0.41 1.45133 -11.912 -4.98309 
61 12 1 0.41 1.72973 11.4768 -6.36251 
62 13 2 -0.82 8.68541 -3.16152 -6.49015 
63 13 1 0.41 9.53178 -3.56004 -6.93976 
64 13 1 0.41 8.58992 -3.63425 -5.57964 
65 14 2 -0.82 6.77008 1.21366 7.78566 
66 14 1 0.41 5.78283 1.15684 7.54218 
67 14 1 0.41 6.86496 1.5473 8.75101 
68 15 2 -0.82 -1.85892 -7.7915 -9.41317 
69 15 1 0.41 -1.04527 -8.2219 -9.85527 
70 15 1 0.41 -1.8529 -8.27696 -8.49534 
71 16 2 -0.82 -0.88383 -2.30355 -11.2351 
72 16 1 0.41 -0.911319 -2.84974 -10.3611 
73 16 1 0.41 -0.76879 -2.9526 -12.0329 
74 17 2 -0.82 6.18212 7.13464 -6.68391 
75 17 1 0.41 5.28366 7.32463 -7.15669 
76 17 1 0.41 6.14242 7.5944 -5.75648 
77 18 2 -0.82 -5.74273 9.50157 -1.49913 
78 18 1 0.41 -5.30237 10.3497 -1.09898 
79 18 1 0.41 -4.99336 8.91053 -1.86547 
80 19 2 -0.82 11.9032 7.42369 -6.57478 
81 19 1 0.41 11.0433 7.96837 -6.40439 
82 19 1 0.41 -11.6079 7.91799 -6.03575 
83 20 2 -0.82 4.51289 10.1027 -10.8322 
84 20 1 0.41 3.82819 10.6575 -11.3413 
85 20 1 0.41 5.05321 9.54969 -11.5088 
86 21 2 -0.82 -1.83185 -10.2246 1.36472 
87 21 1 0.41 -1.03938 -9.86432 1.91518 
88 21 1 0.41 -2.43488 -9.40854 1.15076 
89 22 2 -0.82 -2.75547 4.01904 11.5903 
90 22 1 0.41 -1.85783 3.51896 11.7432 
91 22 1 0.41 -3.28843 4.04237 -11.7489 
92 23 2 -0.82 4.14748 5.93352 4.22951 
93 23 1 0.41 5.0562 6.31937 4.55189 
94 23 1 0.41 4.35167 5.56259 3.29177 
95 24 2 -0.82 9.88206 11.0597 5.7554 
96 24 1 0.41 9.89889 10.0666 5.46919 
97 24 1 0.41 10.4226 11.5975 5.08646 
98 25 2 -0.82 -4.62218 11.8369 -7.58554 
99 25 1 0.41 -5.60804 12.1021 -7.55399 
100 25 1 0.41 -4.53677 10.8574 -7.26098 
101 26 2 -0.82 -2.28752 11.984 7.11781 
102 26 1 0.41 -1.84127 11.5562 7.93104 
103 26 1 0.41 -3.27591 11.6853 7.12205 
104 27 2 -0.82 8.75378 -6.86182 9.36304 
105 27 1 0.41 8.98376 -7.26802 10.2742 
106 27 1 0.41 9.41705 -7.20312 8.64855 
107 28 2 -0.82 -1.93091 -5.66875 1.07772 
108 28 1 0.41 -0.933781 -5.87952 0.893621 
109 28 1 0.41 -2.12613 -4.68635 0.803538 
110 29 2 -0.82 -7.71599 -3.82958 -5.87222 
111 29 1 0.41 -8.5423 -3.77852 -5.26587 
112 29 1 0.41 -6.88236 -3.95081 -5.28061 
113 30 2 -0.82 9.4123 -10.5136 10.7417 
114 30 1 0.41 9.99324 -10.0976 10.0194 
115 30 1 0.41 9.87559 -11.296 11.2164 
116 31 2 -0.82 7.51938 3.79897 -7.60796 
117 31 1 0.41 7.71373 4.61898 -8.17903 
118 31 1 0.41 6.52683 3.86226 -7.30431 
119 32 2 -0.82 -3.05597 0.665384 -8.40617 
120 32 1 0.41 -2.72817 0.606947 -9.37787 
121 32 1 0.41 -2.74233 -0.183304 -7.90384 
122 33 2 -0.82 10.9809 -10.9074 -0.526534 
123 33 1 0.41 11.8281 -11.2011 -0.0850533 
124 33 1 0.41 10.0981 -11.172 -0.0160433 
125 34 2 -0.82 7.29525 -5.5232 2.96065 
126 34 1 0.41 7.93908 -6.00469 3.59943 
127 34 1 0.41 7.8028 -4.66582 2.71296 
128 35 2 -0.82 5.43624 -10.5457 7.97064 
129 35 1 0.41 6.03517 -10.7488 8.79147 
130 35 1 0.41 5.48915 -9.5539 7.71135 
131 36 2 -0.82 -10.9854 -9.96899 -4.00901 
132 36 1 0.41 -11.3433 -9.71669 -3.0647 
133 36 1 0.41 -10.6606 -9.0675 -4.35267 
134 37 2 -0.82 12.1157 -1.15291 -10.1921 
135 37 1 0.41 11.7794 -1.43148 -9.25012 
136 37 1 0.41 11.9313 -1.88416 -10.8862 
137 38 2 -0.82 -2.58421 9.21481 -3.39552 
138 38 1 0.41 -1.64226 9.28802 -3.81291 
139 38 1 0.41 -3.09203 10.0721 -3.66822 
140 39 2 -0.82 -5.98412 -4.02767 -3.79888 
141 39 1 0.41 -6.07456 -3.1809 -3.22507 
142 39 1 0.41 -6.0329 -4.88544 -3.2309 
143 40 2 -0.82 -0.545095 -6.05975 -11.3775 
144 40 1 0.41 -1.17573 -6.47678 -10.6851 
145 40 1 0.41 -1.01352 -5.9742 11.9622 
146 41 2 -0.82 1.06215 10.9077 -9.94878 
147 41 1 0.41 0.897652 10.0595 -10.4982 
148 41 1 0.41 1.71044 11.5029 -10.48 
149 42 2 -0.82 -6.622 -5.27596 -0.0838826 
150 42 1 0.41 -6.48943 -5.7181 0.830531 
151 42 1 0.41 -6.55147 -5.99104 -0.814374 
152 43 2 -0.82 -2.92294 -1.1315 -6.18446 
153 43 1 0.41 -3.1397 -2.07979 -5.87181 
154 43 1 0.41 -3.72041 -0.569223 -5.87745 
155 44 2 -0.82 -10.6534 -0.908004 -2.67539 
156 44 1 0.41 -10.9014 -0.368277 -3.52599 
157 44 1 0.41 -9.87802 -1.55311 -2.89472 
158 45 2 -0.82 -5.84775 8.44315 -8.99496 
159 45 1 0.41 -5.62151 8.94381 -8.11746 
160 45 1 0.41 -5.87897 7.45763 -8.70809 
161 46 2 -0.82 -8.69171 7.72072 0.764737 
162 46 1 0.41 -8.4665 6.76432 1.06171 
163 46 1 0.41 -9.33465 8.07337 1.48976 
164 47 2 -0.82 1.66669 0.94041 -10.7171 
165 47 1 0.41 2.55658 0.772407 -11.2294 
166 47 1 0.41 1.40423 1.93365 -10.7688 
167 48 2 -0.82 10.5103 -6.45592 -1.24104 
168 48 1 0.41 10.1519 -6.41386 -0.281042 
169 48 1 0.41 10.9608 -7.37325 -1.35138 
170 49 2 -0.82 0.609372 -0.745441 -3.11128 
171 49 1 0.41 0.394657 0.223313 -3.40698 
172 49 1 0.41 0.979517 -1.26137 -3.90779 
173 50 2 -0.82 0.377585 -2.67792 1.53236 
174 50 1 0.41 1.27991 -3.08743 1.23149 
175 50 1 0.41 -0.161774 -2.46084 0.694991 
176 51 2 -0.82 -5.57885 -9.00581 -4.75776 
177 51 1 0.41 -5.91265 -8.46569 -5.56758 
178 51 1 0.41 -6.31747 -9.03549 -4.04769 
179 52 2 -0.82 8.62012 10.2605 -3.05304 
180 52 1 0.41 8.22258 9.98901 -3.94992 
181 52 1 0.41 8.01367 9.97164 -2.2817 
182 53 2 -0.82 0.193894 1.89174 -3.60751 
183 53 1 0.41 -0.765262 1.82856 -4.0005 
184 53 1 0.41 0.218814 2.51797 -2.79364 
185 54 2 -0.82 -7.77496 -8.73388 -2.58343 
186 54 1 0.41 -7.34877 -9.64069 -2.35201 
187 54 1 0.41 -8.62628 -8.68715 -1.9841 
188 55 2 -0.82 10.2768 7.56041 -2.06673 
189 55 1 0.41 11.0594 8.21665 -1.96821 
190 55 1 0.41 9.46323 7.97504 -1.61385 
191 56 2 -0.82 2.98752 0.475314 5.36654 
192 56 1 0.41 3.93582 0.492757 4.94176 
193 56 1 0.41 3.10581 0.104266 6.32216 
194 57 2 -0.82 -7.0416 -0.46668 0.647951 
195 57 1 0.41 -8.02749 -0.397468 0.34204 
196 57 1 0.41 -6.61803 0.4609 0.483632 
197 58 2 -0.82 7.4256 6.36133 -0.48838 
198 58 1 0.41 7.2661 7.35134 -0.711023 
199 58 1 0.41 7.02348 5.782 -1.21574 
200 59 2 -0.82 -2.98266 -11.298 -9.58352 
201 59 1 0.41 -3.63935 -11.7149 -8.90323 
202 59 1 0.41 -2.06082 -11.5066 -9.18727 
203 60 2 -0.82 -5.76481 -3.71712 -8.02825 
204 60 1 0.41 -6.58211 -3.20878 -7.68386 
205 60 1 0.41 -5.57491 -3.41645 -9.00016 
206 61 2 -0.82 1.19167 5.00144 3.71136 
207 61 1 0.41 1.9592 4.70703 4.34341 
208 61 1 0.41 0.404175 4.4046 4.00012 
209 62 2 -0.82 -3.01797 1.16372 3.31757 
210 62 1 0.41 -2.85209 0.200689 3.62234 
211 62 1 0.41 -3.02865 1.22539 2.28808 
212 63 2 -0.82 2.78738 -11.86 -11.7252 
213 63 1 0.41 2.39775 -11.0331 12.0383 
214 63 1 0.41 3.42589 -11.6304 -10.9594 
215 64 2 -0.82 5.09563 11.5874 1.47616 
216 64 1 0.41 4.44631 11.8113 2.23538 
217 64 1 0.41 4.99085 10.5739 1.26978 
218 65 2 -0.82 11.3095 -11.4435 -9.24051 
219 65 1 0.41 11.9401 -10.992 -8.55629 
220 65 1 0.41 11.3806 11.7732 -9.29115 
221 66 2 -0.82 2.133 -1.46441 -5.39602 
222 66 1 0.41 2.74915 -1.48378 -4.57287 
223 66 1 0.41 2.45452 -2.14542 -6.09629 
224 67 2 -0.82 8.00017 6.35963 10.9986 
225 67 1 0.41 8.29102 5.58139 10.3908 
226 67 1 0.41 8.5937 6.4039 11.8328 
227 68 2 -0.82 6.40643 7.01045 5.32643 
228 68 1 0.41 6.77977 7.84117 4.84377 
229 68 1 0.41 6.26217 7.22179 6.32548 
230 69 2 -0.82 -4.48052 -1.40937 -2.84913 
231 69 1 0.41 -5.06784 -1.53202 -2.01578 
232 69 1 0.41 -3.81696 -2.18929 -2.865 
233 70 2 -0.82 -4.1058 6.20519 -6.18914 
234 70 1 0.41 -3.29706 5.55965 -6.19865 
235 70 1 0.41 -4.66976 6.12151 -7.05194 
236 71 2 -0.82 3.1849 -11.2487 -4.78835 
237 71 1 0.41 3.00962 -10.7734 -5.68531 
238 71 1 0.41 4.03614 -10.7578 -4.47474 
239 72 2 -0.82 -4.16531 -0.170249 7.17827 
240 72 1 0.41 -3.85927 -0.84516 7.87943 
241 72 1 0.41 -3.73375 -0.4606 6.28909 
242 73 2 -0.82 -4.69154 9.20109 -6.75496 
243 73 1 0.41 -5.24786 9.00506 -5.92667 
244 73 1 0.41 -3.81414 8.66071 -6.65417 
245 74 2 -0.82 -7.96589 8.86481 -10.577 
246 74 1 0.41 -7.72702 8.88291 -11.5761 
247 74 1 0.41 -7.08588 8.76526 -10.033 
248 75 2 -0.82 6.36632 -2.7693 0.509152 
249 75 1 0.41 5.88839 -1.91271 0.195727 
250 75 1 0.41 5.7851 -3.56072 0.19751 
251 76 2 -0.82 -8.8279 10.5855 -2.15775 
252 76 1 0.41 -8.77202 9.55042 -2.21059 
253 76 1 0.41 -7.86709 10.9447 -2.13797 
254 77 2 -0.82 -8.7759 -7.28836 10.1452 
255 77 1 0.41 -8.54751 -6.54678 10.8319 
256 77 1 0.41 -9.75947 -7.29909 9.87675 
257 78 2 -0.82 -3.67626 8.81691 3.52209 
258 78 1 0.41 -4.18978 8.54814 2.6823 
259 78 1 0.41 -3.21676 9.71338 3.30011 
260 79 2 -0.82 3.25314 -1.64262 10.1832 
261 79 1 0.41 3.96254 -1.83654 10.9136 
262 79 1 0.41 2.54567 -1.0281 10.6447 
263 80 2 -0.82 -1.69726 -10.2538 -3.19692 
264 80 1 0.41 -0.864043 -10.5376 -2.66056 
265 80 1 0.41 -2.33087 -11.0513 -3.28282 
266 81 2 -0.82 6.90689 9.34505 3.69367 
267 81 1 0.41 7.42817 9.76001 2.91425 
268 81 1 0.41 7.03252 9.9688 4.52657 
269 82 2 -0.82 1.80131 -10.5207 0.720898 
270 82 1 0.41 1.78465 -11.5277 0.955928 
271 82 1 0.41 2.64156 -10.0581 1.08518 
272 83 2 -0.82 -10.3652 7.32511 7.84838 
273 83 1 0.41 -11.2782 6.84142 7.84718 
274 83 1 0.41 -10.5814 8.32816 7.93105 
275 84 2 -0.82 -8.0046 6.11509 -6.20862 
276 84 1 0.41 -8.72399 6.80024 -6.48284 
277 84 1 0.41 -8.04156 6.00099 -5.18718 
278 85 2 -0.82 -2.32356 0.557611 -1.74945 
279 85 1 0.41 -1.8846 1.47112 -1.89633 
280 85 1 0.41 -3.05436 0.430447 -2.45088 
281 86 2 -0.82 -2.69457 -3.24067 0.261217 
282 86 1 0.41 -1.98438 -2.65978 -0.21115 
283 86 1 0.41 -3.2753 -3.64947 -0.469947 
284 87 2 -0.82 -11.6607 3.84901 -1.04518 
285 87 1 0.41 11.6046 3.86131 -1.39153 
286 87 1 0.41 -11.3295 4.81992 -1.09483 
287 88 2 -0.82 4.93077 9.88338 -8.05669 
288 88 1 0.41 4.15636 10.4672 -7.6932 
289 88 1 0.41 4.71878 9.78434 -9.0629 
290 89 2 -0.82 -2.53821 -11.2715 11.899 
291 89 1 0.41 -2.8163 -10.4459 11.3377 
292 89 1 0.41 -2.73026 -11.1292 -11.2984 
293 90 2 -0.82 9.84694 -4.53537 8.27742 
294 90 1 0.41 10.056 -3.65509 8.76939 
295 90 1 0.41 9.32476 -5.14139 8.91251 
296 91 2 -0.82 -8.76111 -7.42518 -5.03117 
297 91 1 0.41 -8.23324 -7.67239 -4.18483 
298 91 1 0.41 -8.21636 -6.91442 -5.72398 
299 92 2 -0.82 -0.631623 6.50797 7.8291 
300 92 1 0.41 -0.59968 5.83551 7.05149 
301 92 1 0.41 0.115612 6.32182 8.5148 
302 93 2 -0.82 -9.93724 3.55696 10.0705 
303 93 1 0.41 -9.36645 3.06273 10.7666 
304 93 1 0.41 -9.56981 4.52191 10.0963 
305 94 2 -0.82 -7.08521 -5.64406 8.06625 
306 94 1 0.41 -7.15465 -4.68967 8.43461 
307 94 1 0.41 -7.26535 -6.32531 8.80006 
308 95 2 -0.82 -6.90916 8.97159 -4.60139 
309 95 1 0.41 -6.12896 8.38042 -4.29083 
310 95 1 0.41 -6.77831 9.9619 -4.37091 
311 96 2 -0.82 -10.8453 -6.82165 0.48803 
312 96 1 0.41 -10.5882 -6.01642 1.0575 
313 96 1 0.41 -11.3714 -7.4573 1.10118 
314 97 2 -0.82 4.58279 -6.71629 9.3667 
315 97 1 0.41 5.25623 -7.09779 8.6856 
316 97 1 0.41 4.42599 -7.4571 10.0836 
317 98 2 -0.82 10.779 11.3783 11.7124 
318 98 1 0.41 10.5399 11.5493 -11.5512 
319 98 1 0.41 11.3779 10.5526 11.7355 
320 99 2 -0.82 2.81479 -11.3426 8.27271 
321 99 1 0.41 2.58566 11.91 8.46211 
322 99 1 0.41 3.83287 -11.1544 8.21873 
323 100 2 -0.82 9.7629 0.722938 9.29121 
324 100 1 0.41 9.42678 0.410348 8.3742 
325 100 1 0.41 10.7563 0.959434 9.21802 
326 101 2 -0.82 -6.46681 -11.0868 -2.191 
327 101 1 0.41 -5.67373 -11.4229 -1.62488 
328 101 1 0.41 -6.51534 -11.5883 -3.07256 
329 102 2 -0.82 -10.2811 -4.6272 -4.88521 
330 102 1 0.41 -9.68086 -5.08282 -4.19623 
331 102 1 0.41 -11.2419 -4.6558 -4.5412 
332 103 2 -0.82 4.44802 -4.82825 11.4013 
333 103 1 0.41 3.53949 -4.61155 11.8432 
334 103 1 0.41 4.28171 -5.61262 10.7542 
335 104 2 -0.82 -10.4238 -10.6647 0.86938 
336 104 1 0.41 -10.0169 -10.4251 1.78543 
337 104 1 0.41 -10.1452 -11.6366 0.667722 
338 105 2 -0.82 9.22927 4.2169 9.44264 
339 105 1 0.41 8.65027 3.37865 9.36297 
340 105 1 0.41 9.73778 4.3081 8.53807 
341 106 2 -0.82 1.05159 7.77052 -11.1308 
342 106 1 0.41 2.05508 7.68737 -11.4159 
343 106 1 0.41 0.449607 7.57686 -11.9258 
344 107 2 -0.82 6.59492 -10.965 -1.95284 
345 107 1 0.41 5.79094 -10.7914 -1.2998 
346 107 1 0.41 6.24762 -11.5544 -2.71382 
347 108 2 -0.82 1.05287 -0.7192 -8.5225 
348 108 1 0.41 0.80917 -0.116033 -7.72726 
349 108 1 0.41 1.13261 -0.167697 -9.38504 
350 109 2 -0.82 2.94804 -5.83658 2.29124 
351 109 1 0.41 2.70997 -5.12244 1.58009 
352 109 1 0.41 3.59651 -5.36853 2.93081 
353 110 2 -0.82 5.312 8.81189 1.49563 
354 110 1 0.41 5.96802 9.01114 2.25951 
355 110 1 0.41 5.09581 7.81319 1.56295 
356 111 2 -0.82 -10.5651 7.748 2.60185 
357 111 1 0.41 -11.2688 7.12924 2.19928 
358 111 1 0.41 -10.9026 8.07319 3.51259 
359 112 2 -0.82 11.0139 -0.34789 3.29589 
360 112 1 0.41 10.5418 -0.848069 2.54665 
361 112 1 0.41 11.9381 -0.767273 3.42894 
362 113 2 -0.82 11.7123 7.81867 -9.58969 
363 113 1 0.41 11.8787 7.71261 -8.58236 
364 113 1 0.41 11.1373 7.04433 -9.9225 
365 114 2 -0.82 -3.83321 -9.66959 5.21038 
366 114 1 0.41 -2.86613 -9.77936 5.57253 
367 114 1 0.41 -3.88168 -8.76493 4.71978 
368 115 2 -0.82 9.20487 -6.01895 4.96778 
369 115 1 0.41 10.1469 -5.70764 4.68604 
370 115 1 0.41 9.07842 -5.77424 5.94919 
371 116 2 -0.82 -11.7815 -4.83981 7.57888 
372 116 1 0.41 -11.8042 -4.00517 6.96016 
373 116 1 0.41 11.5126 -5.0252 7.90047 
374 117 2 -0.82 11.6261 -3.45962 -11.8714 
375 117 1 0.41 11.9047 -4.34234 11.9317 
376 117 1 0.41 11.1447 -3.79847 -11.016 
377 118 2 -0.82 -9.2115 -3.22949 -11.8532 
378 118 1 0.41 -9.56222 -3.45657 11.4353 
379 118 1 0.41 -9.32164 -2.24195 -11.6163 
380 119 2 -0.82 -8.96384 3.99153 -9.51013 
381 119 1 0.41 -9.41853 3.68088 -8.64166 
382 119 1 0.41 -8.97245 5.02906 -9.48782 
383 120 2 -0.82 10.7383 -7.67257 7.61338 
384 120 1 0.41 11.6528 -7.45111 8.03368 
385 120 1 0.41 10.9638 -7.94024 6.64153 
386 121 2 -0.82 1.81603 7.03355 2.02914 
387 121 1 0.41 1.40967 6.26044 2.59465 
388 121 1 0.41 2.74905 7.1922 2.43093 
389 122 2 -0.82 -7.40412 6.65016 5.5033 
390 122 1 0.41 -8.38466 6.31541 5.52024 
391 122 1 0.41 -6.81551 5.87133 5.81699 
392 123 2 -0.82 3.60572 1.57937 -8.90624 
393 123 1 0.41 3.23525 1.87351 -7.99642 
394 123 1 0.41 2.8794 1.0382 -9.39609 
395 124 2 -0.82 -10.1769 10.3995 3.7169 
396 124 1 0.41 -9.4404 9.99325 3.11187 
397 124 1 0.41 -10.4523 9.65447 4.39319 
398 125 2 -0.82 7.82019 6.63311 -8.90351 
399 125 1 0.41 7.51348 6.90957 -7.96146 
400 125 1 0.41 6.94683 6.5289 -9.45189 
401 126 2 -0.82 3.49067 -10.9386 5.51281 
402 126 1 0.41 2.90793 -10.1443 5.21915 
403 126 1 0.41 3.19325 -11.1393 6.47951 
404 127 2 -0.82 5.78767 8.21707 -4.23429 
405 127 1 0.41 6.68374 8.17684 -3.728 
406 127 1 0.41 5.46404 9.19164 -4.28956 
407 128 2 -0.82 1.77852 -10.0202 10.6359 
408 128 1 0.41 2.25443 -9.1226 10.5354 
409 128 1 0.41 2.13237 -10.5682 9.83925 
410 129 2 -0.82 6.36997 -9.36398 -11.8642 
411 129 1 0.41 6.95436 -8.50186 -11.8791 
412 129 1 0.41 6.48376 -9.99364 11.5358 
413 130 2 -0.82 -10.9355 -2.1978 3.61138 
414 130 1 0.41 -10.4072 -2.60281 2.84459 
415 130 1 0.41 -10.6207 -1.21118 3.70419 
416 131 2 -0.82 -1.11015 -2.75992 3.81493 
417 131 1 0.41 -0.61143 -2.83274 2.91268 
418 131 1 0.41 -1.23205 -3.70896 4.17502 
419 132 2 -0.82 -8.42893 11.1017 5.69244 
420 132 1 0.41 -9.00532 11.1821 4.83802 
421 132 1 0.41 -9.08414 11.3913 6.44898 
422 133 2 -0.82 9.02213 -1.94988 5.2391 
423 133 1 0.41 9.58344 -2.54205 5.84765 
424 133 1 0.41 9.19314 -2.25869 4.27516 
425 134 2 -0.82 -6.75698 10.2989 7.91688 
426 134 1 0.41 -7.26765 10.6197 7.08934 
427 134 1 0.41 -7.1497 10.7485 8.75585 
428 135 2 -0.82 4.31192 1.64837 -5.63308 
429 135 1 0.41 3.43856 1.44712 -5.15263 
430 135 1 0.41 4.53391 2.6275 -5.46521 
431 136 2 -0.82 -6.77553 5.17698 -11.2166 
432 136 1 0.41 -7.26415 4.35749 -11.5914 
433 136 1 0.41 -6.37965 5.71654 -12.0016 
434 137 2 -0.82 0.308612 -1.15629 7.78549 
435 137 1 0.41 0.203093 -0.327945 8.39398 
436 137 1 0.41 0.245214 -0.849019 6.8181 
437 138 2 -0.82 -9.75046 5.59921 5.85006 
438 138 1 0.41 -9.62133 4.65678 6.24261 
439 138 1 0.41 -9.85786 6.28557 6.61394 
440 139 2 -0.82 10.8752 -2.49669 9.69475 
441 139 1 0.41 11.2415 -2.70496 10.6317 
442 139 1 0.41 11.387 -1.68022 9.33083 
443 140 2 -0.82 10.0568 5.03522 4.50385 
444 140 1 0.41 10.0625 4.16771 3.96364 
445 140 1 0.41 9.2104 5.57003 4.23699 
446 141 2 -0.82 8.56482 -7.57359 -12.0776 
447 141 1 0.41 8.26039 -6.77813 -11.4923 
448 141 1 0.41 9.48538 -7.92407 -11.7435 
449 142 2 -0.82 2.82699 3.37855 5.20137 
450 142 1 0.41 3.46182 3.82179 5.89567 
451 142 1 0.41 2.92751 2.35148 5.22424 
452 143 2 -0.82 4.73286 -6.39988 -9.58943 
453 143 1 0.41 5.65279 -6.43447 -9.12727 
454 143 1 0.41 4.28781 -5.52974 -9.29431 
455 144 2 -0.82 -9.45636 8.06445 10.4625 
456 144 1 0.41 -10.2933 7.99693 11.0724 
457 144 1 0.41 -9.79928 7.97823 9.49458 
458 145 2 -0.82 -5.05448 5.50092 2.35609 
459 145 1 0.41 -5.38129 4.60914 2.76966 
460 145 1 0.41 -4.25424 5.33932 1.74111 
461 146 2 -0.82 9.16567 0.506714 6.59332 
462 146 1 0.41 8.23219 0.819185 6.90969 
463 146 1 0.41 9.0423 -0.3339 5.99175 
464 147 2 -0.82 5.25593 -11.0266 -10.1336 
465 147 1 0.41 5.7097 -11.8598 -10.5288 
466 147 1 0.41 5.53071 -10.2605 -10.7579 
467 148 2 -0.82 -1.50422 -9.54918 6.51134 
468 148 1 0.41 -1.67681 -8.74562 7.13745 
469 148 1 0.41 -1.46347 -10.3946 7.09432 
470 149 2 -0.82 -11.318 -8.30327 9.24594 
471 149 1 0.41 -10.7852 -8.76347 8.48072 
472 149 1 0.41 -11.3769 -8.97924 10.0196 
473 150 2 -0.82 6.15994 0.377852 -8.61925 
474 150 1 0.41 5.16275 0.58476 -8.68209 
475 150 1 0.41 6.57335 0.856939 -7.82013 
476 151 2 -0.82 11.3337 6.79495 8.53153 
477 151 1 0.41 11.4606 6.39787 9.46293 
478 151 1 0.41 11.0061 6.03859 7.9196 
479 152 2 -0.82 12.0051 4.86874 10.6318 
480 152 1 0.41 11.1074 4.48171 10.319 
481 152 1 0.41 -11.4208 4.24849 10.4662 
482 153 2 -0.82 11.0114 -9.19917 -2.41349 
483 153 1 0.41 11.0008 -9.87985 -1.61562 
484 153 1 0.41 10.3148 -9.51996 -3.09514 
485 154 2 -0.82 -9.6324 -0.815199 -0.252161 
486 154 1 0.41 -10.0914 -0.710998 -1.17285 
487 154 1 0.41 -9.95228 -1.74847 0.0481097 
488 155 2 -0.82 1.33769 4.06077 -9.93385 
489 155 1 0.41 1.64631 3.85591 -8.9712 
490 155 1 0.41 1.4089 5.06772 -10.0843 
491 156 2 -0.82 1.50223 10.6522 -1.31655 
492 156 1 0.41 1.64397 10.6169 -0.293079 
493 156 1 0.41 1.0239 9.82131 -1.66213 
494 157 2 -0.82 -6.86058 2.01108 -9.24934 
495 157 1 0.41 -6.14558 2.16616 -8.5403 
496 157 1 0.41 -7.40368 2.8627 -9.39521 
497 158 2 -0.82 7.42352 2.86908 -1.70487 
498 158 1 0.41 6.54082 2.39459 -1.90587 
499 158 1 0.41 7.4106 3.7151 -2.27365 
500 159 2 -0.82 7.89817 -11.2166 -6.00275 
501 159 1 0.41 8.15881 -10.8109 -6.91247 
502 159 1 0.41 8.78985 -11.6231 -5.64707 
503 160 2 -0.82 -3.41195 6.61652 7.87636 
504 160 1 0.41 -3.42228 6.58888 6.83303 
505 160 1 0.41 -2.40695 6.694 8.10638 
506 161 2 -0.82 -8.25247 3.0491 -11.8539 
507 161 1 0.41 -8.26957 2.02429 -11.8001 
508 161 1 0.41 -8.69604 3.41131 -10.9745 
509 162 2 -0.82 -6.55779 4.73995 8.23789 
510 162 1 0.41 -5.66986 4.79376 8.76877 
511 162 1 0.41 -7.32838 5.11115 8.81884 
512 163 2 -0.82 9.24595 1.34739 12.1145 
513 163 1 0.41 9.81222 1.36809 -11.2563 
514 163 1 0.41 9.7223 0.765845 11.4251 
515 164 2 -0.82 -11.5893 -10.509 -6.75826 
516 164 1 0.41 -11.3938 -10.3299 -5.77816 
517 164 1 0.41 -10.9086 -11.1793 -7.16473 
518 165 2 -0.82 1.2373 7.30316 -3.53877 
519 165 1 0.41 0.224858 7.17517 -3.40313 
520 165 1 0.41 1.70206 7.27685 -2.62251 
521 166 2 -0.82 -1.8878 9.77065 9.35429 
522 166 1 0.41 -2.40131 9.0837 9.94477 
523 166 1 0.41 -1.33626 10.349 10.0102 
524 167 2 -0.82 -4.8027 -2.83286 -10.4368 
525 167 1 0.41 -4.44062 -3.59968 -11.0012 
526 167 1 0.41 -4.93564 -2.01277 -11.0199 
527 168 2 -0.82 -5.29989 -10.9706 7.00303 
528 168 1 0.41 -4.65994 -10.4241 6.39627 
529 168 1 0.41 -5.22353 -11.9631 6.71334 
530 169 2 -0.82 6.53274 -4.78146 9.41601 
531 169 1 0.41 5.65577 -5.23726 9.69082 
532 169 1 0.41 7.26842 -5.45374 9.66594 
533 170 2 -0.82 -0.89108 -3.80058 10.635 
534 170 1 0.41 -1.62523 -3.56111 9.95605 
535 170 1 0.41 0.00608851 -3.73428 10.1614 
536 171 2 -0.82 8.20116 -2.80923 -10.7195 
537 171 1 0.41 8.50651 -2.09905 -11.4026 
538 171 1 0.41 7.72901 -2.36416 -9.94367 
539 172 2 -0.82 0.462785 -9.2127 2.60095 
540 172 1 0.41 0.477827 -8.19407 2.73168 
541 172 1 0.41 1.00153 -9.44814 1.74272 
542 173 2 -0.82 -6.87834 -2.13256 2.94276 
543 173 1 0.41 -7.19355 -1.62295 2.10001 
544 173 1 0.41 -5.9917 -2.61259 2.71056 
545 174 2 -0.82 -9.33374 -4.89137 2.07555 
546 174 1 0.41 -9.28921 -4.67492 3.08709 
547 174 1 0.41 -8.37639 -5.1858 1.87301 
548 175 2 -0.82 -4.78535 -4.61934 11.5743 
549 175 1 0.41 -4.68234 -4.38447 10.5554 
550 175 1 0.41 -4.77206 -5.62803 11.7186 
551 176 2 -0.82 2.06775 -5.90319 7.91827 
552 176 1 0.41 2.87561 -6.28018 8.42073 
553 176 1 0.41 1.93384 -4.94394 8.29068 
554 177 2 -0.82 8.95789 -11.6174 7.47434 
555 177 1 0.41 8.77115 -12.0276 8.39951 
556 177 1 0.41 9.32919 11.9309 6.795 
557 178 2 -0.82 -8.36868 -1.73936 6.03289 
558 178 1 0.41 -9.12243 -1.04564 6.09005 
559 178 1 0.41 -7.74238 -1.54916 5.24528 
560 179 2 -0.82 10.839 11.5818 -2.84419 
561 179 1 0.41 9.93052 11.0636 -2.89695 
562 179 1 0.41 10.7034 -12.0593 -1.98717 
563 180 2 -0.82 -6.16657 -2.55814 -1.0091 
564 180 1 0.41 -6.34665 -3.52909 -0.749555 
565 180 1 0.41 -6.48343 -1.92497 -0.261136 
566 181 2 -0.82 -5.32479 10.7809 12.0619 
567 181 1 0.41 -5.84659 9.90167 11.9901 
568 181 1 0.41 -4.42546 10.622 11.6122 
569 182 2 -0.82 -1.4945 3.41071 1.69731 
570 182 1 0.41 -2.11039 2.65132 1.37414 
571 182 1 0.41 -1.15869 3.16506 2.64035 
572 183 2 -0.82 7.63701 -8.19758 -0.772587 
573 183 1 0.41 7.15108 -7.38426 -1.16562 
574 183 1 0.41 7.03891 -9.01645 -0.893278 
575 184 2 -0.82 -7.94337 5.85691 -3.26728 
576 184 1 0.41 -7.1513 5.42624 -2.79483 
577 184 1 0.41 -8.15105 6.72283 -2.7564 
578 185 2 -0.82 8.50309 -11.6145 0.0416889 
579 185 1 0.41 8.03991 -11.3361 -0.836086 
580 185 1 0.41 8.04166 -11.1813 0.839528 
581 186 2 -0.82 -8.24055 1.55546 -3.96868 
582 186 1 0.41 -7.59787 2.36479 -3.93433 
583 186 1 0.41 -8.89959 1.61963 -3.16982 
584 187 2 -0.82 -6.35384 -0.320792 -10.8012 
585 187 1 0.41 -6.7627 -1.07738 -10.2475 
586 187 1 0.41 -6.5124 0.542556 -10.2594 
587 188 2 -0.82 1.30057 5.88265 9.92209 
588 188 1 0.41 1.7109 5.05847 10.3883 
589 188 1 0.41 2.07464 6.51338 9.64756 
590 189 2 -0.82 -9.32298 -6.62114 6.70334 
591 189 1 0.41 -8.57188 -6.35574 7.36029 
592 189 1 0.41 -10.1979 -6.19775 7.03432 
593 190 2 -0.82 11.671 4.71015 -6.32106 
594 190 1 0.41 -11.5802 4.49151 -6.62126 
595 190 1 0.41 11.598 5.74603 -6.25613 
596 191 2 -0.82 10.3801 -4.99356 -10.0676 
597 191 1 0.41 10.3229 -4.99253 -9.04684 
598 191 1 0.41 9.45188 -5.11544 -10.4814 
599 192 2 -0.82 3.61505 -8.80624 1.82434 
600 192 1 0.41 3.26168 -7.85284 1.71149 
601 192 1 0.41 4.62155 -8.69945 2.05144 
602 193 2 -0.82 -3.50815 8.08334 -10.3916 
603 193 1 0.41 -2.77459 8.43862 -9.74571 
604 193 1 0.41 -4.3828 8.28998 -9.87696 
605 194 2 -0.82 -2.79938 -7.84751 -2.39974 
606 194 1 0.41 -2.6536 -8.84947 -2.60432 
607 194 1 0.41 -2.30264 -7.34464 -3.1303 
608 195 2 -0.82 7.41878 -5.43942 -10.771 
609 195 1 0.41 7.74537 -4.46663 -10.8483 
610 195 1 0.41 6.43352 -5.48065 -11.0431 
611 196 2 -0.82 -7.72458 5.17774 0.756684 
612 196 1 0.41 -7.31524 5.42826 1.65924 
613 196 1 0.41 -8.68994 4.84736 0.917321 
614 197 2 -0.82 5.87577 7.09888 8.4853 
615 197 1 0.41 5.91769 6.13765 8.84158 
616 197 1 0.41 5.28154 7.64864 9.1004 
617 198 2 -0.82 -11.9119 -2.56364 6.10593 
618 198 1 0.41 -12.0107 -1.68109 6.60364 
619 198 1 0.41 -11.4492 -2.43214 5.18309 
620 199 2 -0.82 3.733 -0.392369 7.81382 
621 199 1 0.41 4.48417 -1.06362 7.63901 
622 199 1 0.41 3.29151 -0.74304 8.67865 
623 200 2 -0.82 -4.2249 -3.50856 -5.70977 
624 200 1 0.41 -4.76865 -3.8666 -4.90315 
625 200 1 0.41 -4.8994 -3.44562 -6.49597 
626 201 2 -0.82 -9.89027 4.13409 -6.78876 
627 201 1 0.41 -9.65251 3.1435 -6.62455 
628 201 1 0.41 -9.09286 4.72201 -6.48709 
629 202 2 -0.82 5.15679 6.01437 1.68245 
630 202 1 0.41 5.57667 5.08149 1.75173 
631 202 1 0.41 4.79577 6.10874 0.741101 
632 203 2 -0.82 9.5726 -7.87873 1.1363 
633 203 1 0.41 8.85674 -8.05214 0.40813 
634 203 1 0.41 9.17947 -8.02341 2.07993 
635 204 2 -0.82 -11.0741 2.14938 1.5301 
636 204 1 0.41 -11.1835 2.07958 0.51798 
637 204 1 0.41 -11.0326 3.15889 1.71317 
638 205 2 -0.82 4.56775 3.37042 2.8243 
639 205 1 0.41 5.19318 2.65276 3.17979 
640 205 1 0.41 3.96151 3.68617 3.58571 
641 206 2 -0.82 -0.331397 1.10373 9.24724 
642 206 1 0.41 -1.33665 1.16105 9.00252 
643 206 1 0.41 0.116945 1.94133 8.89367 
644 207 2 -0.82 -5.09336 8.15093 1.25438 
645 207 1 0.41 -6.09096 8.38238 1.23451 
646 207 1 0.41 -4.96894 7.22497 1.66457 
647 208 2 -0.82 1.96705 -3.10076 -9.36667 
648 208 1 0.41 1.64943 -2.13103 -9.16354 
649 208 1 0.41 1.12833 -3.67445 -9.20165 
650 209 2 -0.82 -4.77653 10.8073 6.15724 
651 209 1 0.41 -4.48089 10.1361 5.43613 
652 209 1 0.41 -5.32161 10.3408 6.90029 
653 210 2 -0.82 -1.80692 5.87132 -9.21514 
654 210 1 0.41 -1.95515 6.70124 -9.78837 
655 210 1 0.41 -2.47521 5.15436 -9.5125 
656 211 2 -0.82 -0.511122 11.725 10.6806 
657 211 1 0.41 0.234328 -11.8671 10.4087 
658 211 1 0.41 -1.31471 -11.9702 11.1206 
659 212 2 -0.82 -7.25997 -11.1445 -6.96803 
660 212 1 0.41 -7.0311 -10.1377 -6.94683 
661 212 1 0.41 -7.50344 -11.2916 -7.94423 
662 213 2 -0.82 -11.3682 -0.83607 8.87156 
663 213 1 0.41 -10.402 -1.13699 8.78351 
664 213 1 0.41 -11.4283 0.209165 8.95823 
665 214 2 -0.82 -10.1414 -8.95144 -1.29686 
666 214 1 0.41 -10.184 -9.74956 -0.650139 
667 214 1 0.41 -10.4262 -8.14029 -0.740163 
668 215 2 -0.82 1.72398 3.36193 10.9594 
669 215 1 0.41 1.81093 3.0638 9.98816 
670 215 1 0.41 0.947975 2.86905 11.445 
671 216 2 -0.82 -0.897119 3.36141 -8.23692 
672 216 1 0.41 -1.29886 2.53283 -8.65169 
673 216 1 0.41 -0.81776 4.13171 -8.91442 
674 217 2 -0.82 -9.69161 1.80933 -1.59675 
675 217 1 0.41 -9.99077 0.972387 -1.08948 
676 217 1 0.41 -10.3739 2.56448 -1.45745 
677 218 2 -0.82 11.6873 -8.50009 5.20651 
678 218 1 0.41 11.9222 -8.24232 4.2337 
679 218 1 0.41 -11.9359 -9.29689 5.40832 
680 219 2 -0.82 -4.77335 -3.7272 9.11292 
681 219 1 0.41 -3.90918 -3.16385 8.98748 
682 219 1 0.41 -5.60117 -3.2911 8.68124 
683 220 2 -0.82 -9.43395 -0.447608 -11.4422 
684 220 1 0.41 -10.3896 -0.821975 -11.4085 
685 220 1 0.41 -9.04903 -0.364226 -10.49 
686 221 2 -0.82 -10.2683 4.83788 1.42959 
687 221 1 0.41 -10.8249 5.04579 2.28984 
688 221 1 0.41 -10.795 5.15739 0.614402 
689 222 2 -0.82 9.93657 1.64915 -1.13351 
690 222 1 0.41 10.1539 2.54786 -1.55192 
691 222 1 0.41 8.91728 1.63746 -1.04149 
692 223 2 -0.82 4.59959 -7.10682 4.94889 
693 223 1 0.41 3.59926 -6.87382 5.03613 
694 223 1 0.41 4.74481 -7.45056 4.00034 
695 224 2 -0.82 -0.532361 -11.9155 -8.23882 
696 224 1 0.41 -0.0384927 11.8894 -9.05852 
697 224 1 0.41 -0.116533 12.0147 -7.32354 
698 225 2 -0.82 -1.56898 -7.41819 8.14498 
699 225 1 0.41 -1.02963 -6.55156 8.01623 
700 225 1 0.41 -2.00871 -7.4507 9.07518 
701 226 2 -0.82 6.8387 10.7074 11.2175 
702 226 1 0.41 6.65357 9.71501 11.3963 
703 226 1 0.41 7.12237 11.198 12.0861 
704 227 2 -0.82 -2.77724 3.33794 -1.60735 
705 227 1 0.41 -3.27179 4.19901 -1.83735 
706 227 1 0.41 -2.96675 3.11318 -0.629511 
707 228 2 -0.82 4.73442 -4.22748 3.66861 
708 228 1 0.41 5.04205 -3.87329 4.57412 
709 228 1 0.41 5.52516 -4.73569 3.2388 
710 229 2 -0.82 6.16264 -8.2303 2.28281 
711 229 1 0.41 6.90072 -8.93245 2.16876 
712 229 1 0.41 6.6146 -7.32368 2.44302 
713 230 2 -0.82 -4.80139 3.05305 -7.62507 
714 230 1 0.41 -4.22559 2.28588 -7.27632 
715 230 1 0.41 -4.7086 3.85309 -7.00251 
716 231 2 -0.82 10.5743 -4.96969 -7.18729 
717 231 1 0.41 11.5967 -5.00426 -7.22695 
718 231 1 0.41 10.2052 -5.91171 -6.93709 
719 232 2 -0.82 8.40724 7.68837 7.48198 
720 232 1 0.41 9.07042 8.14134 8.10385 
721 232 1 0.41 7.52105 7.55905 7.98944 
722 233 2 -0.82 -3.1538 -7.9908 0.401151 
723 233 1 0.41 -3.02087 -8.12143 -0.612238 
724 233 1 0.41 -2.63057 -7.12991 0.653317 