 DBCSR| Multiplication driver                                                SMM
 DBCSR| Multiplication stack size                                           1000
 DBCSR| Multiplication size stacks                                             0
 DBCSR| Use subcommunicators                                                   T
 DBCSR| Use MPI combined types                                                 F
 DBCSR| Use MPI memory allocation                                              T
 DBCSR| Use Communication thread                                               T
 DBCSR| Communication thread load                                            100


  **** **** ******  **  PROGRAM STARTED AT               2016-12-23 21:15:35.264
 ***** ** ***  *** **   PROGRAM STARTED ON                             midway532
 **    ****   ******    PROGRAM STARTED BY
 ***** **    ** ** **   PROGRAM PROCESS ID                                  2416
  **** **  *******  **  PROGRAM STARTED IN /project/gavoth/hmayes/asp_glu_in_wat
                                           er/glu_3.2_cp2k/cp2k_files

 CP2K| version string:                                        CP2K version 2.4.0
 CP2K| source code revision number:                                        12993
 CP2K| is freely available from                             http://www.cp2k.org/
 CP2K| Program compiled at                          Tue Aug 20 13:25:30 CDT 2013
 CP2K| Program compiled on                                         midway-login1
 CP2K| Program compiled for                                  Linux-x86-64-midway
 CP2K| Input file name                                          glu_3.0_1.075.in

 GLOBAL| Force Environment number                                              1
 GLOBAL| Basis set file name                  ../input/cp2k_files/GTH_BASIS_SETS
 GLOBAL| Geminal file name                                         BASIS_GEMINAL
 GLOBAL| Potential file name                  ../input/cp2k_files/GTH_POTENTIALS
 GLOBAL| MM Potential file name                                     MM_POTENTIAL
 GLOBAL| Coordinate file name               ../fix_min/glu_3.0_1.075_wrapped.pdb
 GLOBAL| Method name                                                        CP2K
 GLOBAL| Project name                                              glu_3.0_1.075
 GLOBAL| Preferred FFT library                                             FFTW3
 GLOBAL| Run type                                                   ENERGY_FORCE
 GLOBAL| All-to-all communication in single precision                          F
 GLOBAL| FFTs using library dependent lengths                                  F
 GLOBAL| Global print level                                               MEDIUM
 GLOBAL| Total number of message passing processes                            20
 GLOBAL| Number of threads for this process                                    1
 GLOBAL| This output is from process                                           0

 MEMORY| system memory details [Kb]
 MEMORY|                        rank 0           min           max       average
 MEMORY| MemTotal             66076096      66076096      66076096      66076096
 MEMORY| MemFree              60782320      60782320      60843700      60815744
 MEMORY| Buffers                     0             0             0             0
 MEMORY| Cached                1260948       1260948       1260948       1260948
 MEMORY| Slab                   247692        247692        247692        247692
 MEMORY| SReclaimable            34516         34516         34516         34516
 MEMORY| MemLikelyFree        62077784      62077784      62139164      62111208


 *** Fundamental physical constants (SI units) ***

 *** Literature: B. J. Mohr and B. N. Taylor,
 ***             CODATA recommended values of the fundamental physical
 ***             constants: 2006, Web Version 5.1
 ***             http://physics.nist.gov/constants

 Speed of light in vacuum [m/s]                             2.99792458000000E+08
 Magnetic constant or permeability of vacuum [N/A**2]       1.25663706143592E-06
 Electric constant or permittivity of vacuum [F/m]          8.85418781762039E-12
 Planck constant (h) [J*s]                                  6.62606896000000E-34
 Planck constant (h-bar) [J*s]                              1.05457162825177E-34
 Elementary charge [C]                                      1.60217648700000E-19
 Electron mass [kg]                                         9.10938215000000E-31
 Electron g factor [ ]                                     -2.00231930436220E+00
 Proton mass [kg]                                           1.67262163700000E-27
 Fine-structure constant                                    7.29735253760000E-03
 Rydberg constant [1/m]                                     1.09737315685270E+07
 Avogadro constant [1/mol]                                  6.02214179000000E+23
 Boltzmann constant [J/K]                                   1.38065040000000E-23
 Atomic mass unit [kg]                                      1.66053878200000E-27
 Bohr radius [m]                                            5.29177208590000E-11

 *** Conversion factors ***

 [u] -> [a.u.]                                              1.82288848426455E+03
 [Angstrom] -> [Bohr] = [a.u.]                              1.88972613288564E+00
 [a.u.] = [Bohr] -> [Angstrom]                              5.29177208590000E-01
 [a.u.] -> [s]                                              2.41888432650478E-17
 [a.u.] -> [fs]                                             2.41888432650478E-02
 [a.u.] -> [J]                                              4.35974393937059E-18
 [a.u.] -> [K]                                              3.15774647902944E+05
 [a.u.] -> [kJ/mol]                                         2.62549961709828E+03
 [a.u.] -> [kcal/mol]                                       6.27509468713739E+02
 [a.u.] -> [Pa]                                             2.94210107994716E+13
 [a.u.] -> [bar]                                            2.94210107994716E+08
 [a.u.] -> [atm]                                            2.90362800883016E+08
 [a.u.] -> [eV]                                             2.72113838565563E+01
 [a.u.] -> [Hz]                                             6.57968392072181E+15
 [a.u.] -> [1/cm] (wave numbers)                            2.19474631370540E+05
 [a.u./Bohr**2] -> [1/cm]                                   5.14048714338585E+03



                      ************* ******** ***********
                     ************* **********************
                     ****     **** ****      ***********
                     ******** ****  *******     ****
                     *******  ****   *******   ****
                     ****     ****       ****  ****
                     ****     **** **********  ****
                      ****     **** ********    ****
                     FRONTIERS IN SIMULATION TECHNOLOGY

                        C.J. Mundy, S. Balasubramanian,
                     Ken Bagchi, J. Hutter, Ari Seitsonen
                      IFW Kuo, T. Laino, J. VandeVondele
                                 Version 1.0




 CELL| Volume [angstrom^3]:                                            14259.422
 CELL| Vector a [angstrom]:      24.249     0.000     0.000    |a| =      24.249
 CELL| Vector b [angstrom]:       0.000    24.249     0.000    |b| =      24.249
 CELL| Vector c [angstrom]:       0.000     0.000    24.249    |c| =      24.249
 CELL| Angle (b,c), alpha [degree]:                                       90.000
 CELL| Angle (a,c), beta  [degree]:                                       90.000
 CELL| Angle (a,b), gamma [degree]:                                       90.000
 CELL| Orthorhombic:                                                         YES

 ...

 *******************************************************************************
 *******************************************************************************
 **                                                                           **
 **     #####                         ##              ##                      **
 **    ##   ##            ##          ##              ##                      **
 **   ##     ##                       ##            ######                    **
 **   ##     ##  ##   ##  ##   #####  ##  ##   ####   ##    #####    #####    **
 **   ##     ##  ##   ##  ##  ##      ## ##   ##      ##   ##   ##  ##   ##   **
 **   ##  ## ##  ##   ##  ##  ##      ####     ###    ##   ######   ######    **
 **    ##  ###   ##   ##  ##  ##      ## ##      ##   ##   ##       ##        **
 **     #######   #####   ##   #####  ##  ##  ####    ##    #####   ##        **
 **           ##                                                    ##        **
 **                                                                           **
 **                                                ... make the atoms dance   **
 **                                                                           **
 **            Copyright (C) by CP2K Developers Group (2000 - 2013)           **
 **                                                                           **
 *******************************************************************************

 DFT| Spin restricted Kohn-Sham (RKS) calculation                            RKS
 DFT| Multiplicity                                                             1
 DFT| Number of spin states                                                    1
 DFT| Charge                                                                   0
 DFT| Self-interaction correction (SIC)                                       NO
 DFT| Cutoffs: density                                              1.000000E-10
 DFT|          gradient                                             1.000000E-10
 DFT|          tau                                                  1.000000E-10
 DFT|          cutoff_smoothing_range                               0.000000E+00
 DFT| XC density smoothing                                               SPLINE2
 DFT| XC derivatives                                              SPLINE2_SMOOTH
 FUNCTIONAL| ROUTINE=NEW
 FUNCTIONAL| BECKE88:
 FUNCTIONAL| A. Becke, Phys. Rev. A 38, 3098 (1988) {LDA version}
 FUNCTIONAL| LYP:
 FUNCTIONAL| C. Lee, W. Yang, R.G. Parr, Phys. Rev. B, 37, 785 (1988) {LDA versi
 FUNCTIONAL| on}
 FUNCTIONAL| VWN:
 FUNCTIONAL| S. H. Vosko, L. Wilk and M. Nusair, Can. J. Phys. 58, 1200 (1980) {
 FUNCTIONAL| LDA version}
 FUNCTIONAL| XALPHA:
 FUNCTIONAL| Dirac/Slater local exchange; parameter=  0.666 {LDA}
 vdW POTENTIAL|                                                   Pair Potential
 vdW POTENTIAL|          Potential Form: S. Grimme et al, JCP 132: 154104 (2010)
 vdW POTENTIAL|          Cutoff Radius [Bohr]:                             20.00
 vdW POTENTIAL|          s6 Scaling Factor:                               1.0000
 vdW POTENTIAL|          sr6 Scaling Factor:                              1.2610
 vdW POTENTIAL|          s8 Scaling Factor:                               1.7030
 vdW POTENTIAL|          Cutoff for CN calculation:                   0.1000E-05

 ...


 MODULE FIST:  ATOMIC COORDINATES IN angstrom

  Atom  Kind  ATM_TYP       X           Y           Z          q(eff)       Mass

     1    1   C          8.137000    3.806000    4.381000      0.00      12.0110
     2    2   O          7.493000    4.268000    3.402000      0.00      15.9990
     3    3   NH1        7.752000    2.626000    4.840000      0.00      14.0070
     4    4   H          8.193000    2.147000    5.619000      0.00       1.0080
     5    5   CT3        6.848000    1.731000    4.208000      0.00      12.0110
     6    6   HA3        7.368000    1.392000    3.320000      0.00       1.0080
     7    6   HA3        6.774000    0.872000    4.861000      0.00       1.0080
     8    6   HA3        5.857000    2.211000    3.949000      0.00       1.0080
     9    7   CT3        9.724000    7.387000    2.411000      0.00      12.0110
    10    6   HA3        9.387000    8.234000    3.162000      0.00       1.0080
    11    6   HA3        8.925000    7.275000    1.555000      0.00       1.0080
    12    6   HA3       10.672000    7.891000    2.028000      0.00       1.0080
    13    1   C          9.992000    6.205000    3.146000      0.00      12.0110
    14    2   O         11.114000    5.710000    3.007000      0.00      15.9990
    15    3   NH1        9.018000    5.732000    4.041000      0.00      14.0070
    16    4   H          8.069000    6.223000    4.134000      0.00       1.0080
    17    8   _LNK       9.147000    4.691000    4.908000      0.00      12.0110
    18    9   HB1       10.118000    4.245000    4.834000      0.00       1.0080
    19   10   _QM_       8.765000    5.148000    6.328000      0.00      12.0110
    20   11   _QM_       7.934000    5.823000    6.217000      0.00       1.0080
    21   11   _QM_       8.482000    4.186000    6.877000      0.00       1.0080
    22   12   _QM_       9.951000    5.956000    6.914000      0.00      12.0110
    23   11   _QM_      10.852000    5.359000    7.064000      0.00       1.0080
    24   11   _QM_      10.232000    6.753000    6.203000      0.00       1.0080
    25   13   _QM_       9.716000    6.646000    8.243000      0.00      12.0110
    26   14   _QM_       8.783000    6.477000    8.991000      0.00      15.9990
    27   14   _QM_      10.657000    7.629000    8.663000      0.00      15.9990
    28   15   _QM_       9.366000    8.943000   11.032000      0.00      15.9994
    29   16   _QM_      10.129000    8.082000    9.483000      0.00       1.0080
    30   16   _QM_       9.237000    9.911000   11.216000      0.00       1.0080
    31   16   _QM_       8.557000    8.343000   11.092000      0.00       1.0080
    32   17   OT        14.680000    0.345000    6.824000      0.00      15.9994
    33   18   HT        15.637000    0.548000    6.502000      0.00       1.0080
    34   18   HT        14.676000    0.350000    7.856000      0.00       1.0080
    35   17   OT        -2.404000    7.016000   10.206000      0.00      15.9994
    36   18   HT        -2.867000    7.712000   10.748000      0.00       1.0080
    37   18   HT        -1.583000    6.646000   10.702000      0.00       1.0080
    38   17   OT        11.615000   -0.765000    9.652000      0.00      15.9994
    39   18   HT        11.371000    0.199000    9.438000      0.00       1.0080
    40   18   HT        11.164000   -1.374000    8.944000      0.00       1.0080
    41   17   OT        19.400000   11.456000    5.734000      0.00      15.9994
    42   18   HT        18.984000   11.050000    6.612000      0.00       1.0080
    43   18   HT        18.991000   12.356000    5.564000      0.00       1.0080
    44   17   OT         2.554000    6.966000   -2.137000      0.00      15.9994
    45   18   HT         3.514000    6.662000   -2.359000      0.00       1.0080
    46   18   HT         2.459000    7.549000   -1.285000      0.00       1.0080
    47   17   OT         3.718000   -1.704000   17.425000      0.00      15.9994
    48   18   HT         3.331000   -1.087000   16.706000      0.00       1.0080
    49   18   HT         4.640000   -1.970000   17.063000      0.00       1.0080
    50   17   OT         0.766000   -4.287000    0.159000      0.00      15.9994
    51   18   HT         0.564000   -4.641000   -0.789000      0.00       1.0080
    52   18   HT        -0.096000   -3.910000    0.596000      0.00       1.0080
    53   17   OT        15.741000   12.326000    1.788000      0.00      15.9994
    54   18   HT        16.390000   11.702000    2.329000      0.00       1.0080
    55   18   HT        16.136000   12.932000    1.069000      0.00       1.0080
    56   17   OT        11.820000    2.147000    1.080000      0.00      15.9994
    57   18   HT        11.379000    2.725000    1.757000      0.00       1.0080
    58   18   HT        12.778000    2.519000    0.997000      0.00       1.0080
    59   17   OT        10.543000   -4.048000   15.219000      0.00      15.9994
    60   18   HT        10.226000   -4.151000   16.141000      0.00       1.0080
    61   18   HT        11.439000   -3.592000   15.114000      0.00       1.0080
    62   17   OT        13.738000   16.808000   18.379000      0.00      15.9994
    63   18   HT        12.762000   17.079000   18.186000      0.00       1.0080
    64   18   HT        14.030000   17.660000   18.909000      0.00       1.0080
    65   17   OT        18.010000    0.788000   -0.940000      0.00      15.9994
    66   18   HT        17.609000   -0.006000   -1.483000      0.00       1.0080
    67   18   HT        18.222000    1.635000   -1.475000      0.00       1.0080
    68   17   OT         5.699000    3.397000   12.600000      0.00      15.9994
    69   18   HT         5.644000    3.407000   13.613000      0.00       1.0080
    70   18   HT         4.761000    3.299000   12.202000      0.00       1.0080
    71   17   OT         3.591000   -0.260000    7.444000      0.00      15.9994
    72   18   HT         3.491000    0.718000    7.124000      0.00       1.0080
    73   18   HT         3.310000   -0.422000    8.433000      0.00       1.0080
    74   17   OT        10.115000   16.819000   12.359000      0.00      15.9994
    75   18   HT         9.603000   16.201000   13.016000      0.00       1.0080
    76   18   HT        10.084000   16.408000   11.416000      0.00       1.0080
    77   17   OT         8.244000   16.164000    5.152000      0.00      15.9994
    78   18   HT         8.225000   16.841000    5.922000      0.00       1.0080
    79   18   HT         9.030000   15.512000    5.284000      0.00       1.0080
    80   17   OT         6.976000    2.456000   -2.602000      0.00      15.9994
    81   18   HT         6.935000    1.572000   -2.103000      0.00       1.0080
    82   18   HT         8.014000    2.593000   -2.645000      0.00       1.0080
    83   17   OT         9.145000   -4.748000   12.822000      0.00      15.9994
    84   18   HT         9.201000   -4.394000   13.801000      0.00       1.0080
    85   18   HT         9.556000   -5.693000   12.678000      0.00       1.0080
    86   17   OT         3.817000    6.594000    8.059000      0.00      15.9994
    87   18   HT         3.437000    7.482000    8.392000      0.00       1.0080
    88   18   HT         4.066000    5.916000    8.784000      0.00       1.0080
    89   17   OT         7.646000   -1.483000    2.693000      0.00      15.9994
    90   18   HT         6.739000   -1.109000    2.905000      0.00       1.0080
    91   18   HT         8.059000   -0.893000    1.951000      0.00       1.0080
    92   17   OT        11.472000    1.020000   19.295000      0.00      15.9994
    93   18   HT        11.799000    1.047000   20.264000      0.00       1.0080
    94   18   HT        12.187000    0.984000   18.556000      0.00       1.0080
    95   17   OT         5.084000   -5.146000    0.273000      0.00      15.9994
    96   18   HT         4.301000   -4.456000    0.348000      0.00       1.0080
    97   18   HT         5.959000   -4.866000    0.767000      0.00       1.0080
    98   17   OT         6.695000   -1.751000   17.116000      0.00      15.9994
    99   18   HT         6.942000   -1.553000   16.140000      0.00       1.0080
   100   18   HT         6.879000   -2.747000   17.371000      0.00       1.0080
   101   17   OT        10.363000   17.633000    8.071000      0.00      15.9994
   102   18   HT        10.622000   17.926000    7.102000      0.00       1.0080
   103   18   HT        10.727000   18.415000    8.624000      0.00       1.0080
   104   17   OT        19.579000   18.517000   11.873000      0.00      15.9994
   105   18   HT        19.978000   17.886000   11.136000      0.00       1.0080
   106   18   HT        19.352000   19.351000   11.315000      0.00       1.0080
   107   17   OT        21.640000   18.730000    2.453000      0.00      15.9994
   108   18   HT        22.194000   18.674000    3.345000      0.00       1.0080
   109   18   HT        22.039000   19.590000    2.013000      0.00       1.0080
   110   17   OT        10.223000    9.792000    0.103000      0.00      15.9994
   111   18   HT        11.125000    9.341000    0.195000      0.00       1.0080
   112   18   HT        10.373000   10.665000   -0.441000      0.00       1.0080
   113   17   OT         4.306000   14.324000    0.095000      0.00      15.9994
   114   18   HT         4.492000   13.491000   -0.483000      0.00       1.0080
   115   18   HT         3.458000   14.037000    0.561000      0.00       1.0080
   116   17   OT        -1.725000   16.896000   18.734000      0.00      15.9994
   117   18   HT        -2.691000   17.038000   19.028000      0.00       1.0080
   118   18   HT        -1.066000   16.672000   19.502000      0.00       1.0080
   119   17   OT        18.342000    2.250000    5.120000      0.00      15.9994
   120   18   HT        17.812000    2.554000    4.297000      0.00       1.0080
   121   18   HT        19.020000    1.569000    4.650000      0.00       1.0080
   122   17   OT        17.943000    1.158000   15.999000      0.00      15.9994
   123   18   HT        18.563000    0.667000   15.324000      0.00       1.0080
   124   18   HT        17.584000    2.087000   15.591000      0.00       1.0080
   125   17   OT        14.664000    7.597000   18.134000      0.00      15.9994
   126   18   HT        15.296000    6.884000   17.708000      0.00       1.0080
   127   18   HT        13.674000    7.494000   17.948000      0.00       1.0080
   128   17   OT        21.411000    1.815000   10.469000      0.00      15.9994
   129   18   HT        20.434000    1.936000   10.226000      0.00       1.0080
   130   18   HT        21.851000    2.600000    9.962000      0.00       1.0080
   131   17   OT         2.107000   15.217000   12.241000      0.00      15.9994
   132   18   HT         2.587000   15.053000   11.379000      0.00       1.0080
   133   18   HT         2.824000   15.074000   12.964000      0.00       1.0080
   134   17   OT        21.056000    2.789000    6.250000      0.00      15.9994
   135   18   HT        20.296000    2.956000    5.604000      0.00       1.0080
   136   18   HT        21.749000    2.147000    5.855000      0.00       1.0080
   137   17   OT        13.512000   -4.336000    1.657000      0.00      15.9994
   138   18   HT        12.913000   -4.225000    0.770000      0.00       1.0080
   139   18   HT        13.954000   -5.251000    1.615000      0.00       1.0080
   140   17   OT        10.608000    1.657000   14.255000      0.00      15.9994
   141   18   HT         9.793000    2.256000   14.061000      0.00       1.0080
   142   18   HT        10.417000    0.942000   15.005000      0.00       1.0080
   143   17   OT         2.169000    4.135000    4.847000      0.00      15.9994
   144   18   HT         1.609000    3.810000    4.050000      0.00       1.0080
   145   18   HT         1.765000    4.969000    5.262000      0.00       1.0080
   146   17   OT         1.542000   17.236000    0.200000      0.00      15.9994
   147   18   HT         2.524000   16.951000    0.314000      0.00       1.0080
   148   18   HT         1.393000   18.277000    0.231000      0.00       1.0080
   149   19   _QM_       4.928000   15.347000   13.596000      0.00      15.9994
   150   20   _QM_       5.823000   15.814000   13.668000      0.00       1.0080
   151   20   _QM_       5.142000   14.577000   12.966000      0.00       1.0080
   152   17   OT         3.915000    1.213000   16.796000      0.00      15.9994
   153   18   HT         4.802000    1.018000   16.350000      0.00       1.0080
   154   18   HT         3.467000    1.887000   16.157000      0.00       1.0080
   155   19   _QM_       8.353000    8.948000    6.733000      0.00      15.9994
   156   20   _QM_       8.581000    9.857000    7.181000      0.00       1.0080
   157   20   _QM_       8.084000    9.406000    5.848000      0.00       1.0080
   158   17   OT        -1.231000    7.568000    1.529000      0.00      15.9994
   159   18   HT        -1.006000    8.547000    1.707000      0.00       1.0080
   160   18   HT        -2.075000    7.526000    0.926000      0.00       1.0080
   161   17   OT        21.588000    6.890000    7.392000      0.00      15.9994
   162   18   HT        21.772000    7.186000    8.378000      0.00       1.0080
   163   18   HT        22.407000    6.923000    6.775000      0.00       1.0080
   164   17   OT        19.227000    2.821000    1.089000      0.00      15.9994
   165   18   HT        19.350000    1.797000    1.143000      0.00       1.0080
   166   18   HT        19.871000    3.198000    1.790000      0.00       1.0080
   167   17   OT        10.363000   15.017000   10.038000      0.00      15.9994
   168   18   HT         9.465000   15.441000    9.928000      0.00       1.0080
   169   18   HT        10.787000   14.917000    9.114000      0.00       1.0080
   170   17   OT        13.206000    0.938000   17.137000      0.00      15.9994
   171   18   HT        13.646000    1.782000   17.508000      0.00       1.0080
   172   18   HT        13.790000    0.617000   16.398000      0.00       1.0080
   173   17   OT         1.863000   16.406000    3.009000      0.00      15.9994
   174   18   HT         1.511000   15.475000    2.718000      0.00       1.0080
   175   18   HT         2.744000   16.683000    2.538000      0.00       1.0080
   176   17   OT        18.972000   16.793000    5.829000      0.00      15.9994
   177   18   HT        19.638000   16.009000    6.098000      0.00       1.0080
   178   18   HT        18.491000   17.193000    6.719000      0.00       1.0080
   179   19   _QM_       9.695000   10.467000   18.015000      0.00      15.9994
   180   20   _QM_      10.400000   10.023000   18.668000      0.00       1.0080
   181   20   _QM_       9.667000   11.507000   18.116000      0.00       1.0080
   182   17   OT        13.707000    6.185000    6.739000      0.00      15.9994
   183   18   HT        13.345000    5.538000    6.019000      0.00       1.0080
   184   18   HT        13.613000    7.150000    6.439000      0.00       1.0080
   185   17   OT        13.427000   -4.840000   14.660000      0.00      15.9994
   186   18   HT        13.000000   -5.366000   13.882000      0.00       1.0080
   187   18   HT        14.008000   -5.669000   14.987000      0.00       1.0080
   188   17   OT        14.905000    2.143000    4.172000      0.00      15.9994
   189   18   HT        14.626000    1.175000    4.253000      0.00       1.0080
   190   18   HT        15.639000    2.351000    3.500000      0.00       1.0080
   191   17   OT        11.357000   -1.915000   18.852000      0.00      15.9994
   192   18   HT        12.205000   -2.435000   19.091000      0.00       1.0080
   193   18   HT        11.516000   -0.899000   18.764000      0.00       1.0080
   194   17   OT        21.482000    3.283000   -3.069000      0.00      15.9994
   195   18   HT        21.981000    3.225000   -2.213000      0.00       1.0080
   196   18   HT        21.854000    4.226000   -3.227000      0.00       1.0080
   197   17   OT        12.279000   12.354000   -3.847000      0.00      15.9994
   198   18   HT        12.516000   12.901000   -4.681000      0.00       1.0080
   199   18   HT        12.131000   11.459000   -4.291000      0.00       1.0080
   200   17   OT        14.912000   -0.924000    3.422000      0.00      15.9994
   201   18   HT        15.731000   -1.286000    3.883000      0.00       1.0080
   202   18   HT        14.081000   -1.572000    3.445000      0.00       1.0080
   203   17   OT        20.641000   -3.578000   -1.250000      0.00      15.9994
   204   18   HT        20.433000   -4.037000   -2.167000      0.00       1.0080
   205   18   HT        21.093000   -2.709000   -1.528000      0.00       1.0080
   206   17   OT         2.720000   -1.197000   14.095000      0.00      15.9994
   207   18   HT         2.776000   -2.186000   13.794000      0.00       1.0080
   208   18   HT         1.711000   -0.836000   14.112000      0.00       1.0080
   209   17   OT         3.505000    2.182000   11.000000      0.00      15.9994
   210   18   HT         3.561000    1.529000   11.805000      0.00       1.0080
   211   18   HT         2.795000    1.691000   10.449000      0.00       1.0080
   212   17   OT        12.099000   -4.152000    7.414000      0.00      15.9994
   213   18   HT        11.519000   -3.318000    7.237000      0.00       1.0080
   214   18   HT        12.595000   -3.976000    8.286000      0.00       1.0080
   215   17   OT        11.646000   16.469000   16.646000      0.00      15.9994
   216   18   HT        11.593000   15.529000   16.155000      0.00       1.0080
   217   18   HT        11.781000   17.250000   15.999000      0.00       1.0080
   218   17   OT        12.003000   -5.220000   -1.885000      0.00      15.9994
   219   18   HT        11.747000   -4.433000   -1.292000      0.00       1.0080
   220   18   HT        11.801000   -5.003000   -2.881000      0.00       1.0080
   221   17   OT        13.985000   17.335000    1.645000      0.00      15.9994
   222   18   HT        13.960000   16.449000    1.134000      0.00       1.0080
   223   18   HT        14.885000   17.294000    2.191000      0.00       1.0080
   224   17   OT         7.128000   -1.914000   14.313000      0.00      15.9994
   225   18   HT         7.836000   -2.112000   13.594000      0.00       1.0080
   226   18   HT         6.538000   -1.231000   13.851000      0.00       1.0080
   227   17   OT        16.144000   10.521000   11.786000      0.00      15.9994
   228   18   HT        16.973000   10.505000   11.148000      0.00       1.0080
   229   18   HT        16.193000   11.350000   12.355000      0.00       1.0080
   230   17   OT        20.204000    0.795000    3.420000      0.00      15.9994
   231   18   HT        19.377000    0.535000    2.824000      0.00       1.0080
   232   18   HT        20.961000    1.157000    2.865000      0.00       1.0080
   233   19   _QM_       4.856000   12.567000    8.151000      0.00      15.9994
   234   20   _QM_       5.057000   13.411000    7.566000      0.00       1.0080
   235   20   _QM_       4.178000   12.807000    8.899000      0.00       1.0080
   236   17   OT        21.304000    3.698000   13.100000      0.00      15.9994
   237   18   HT        20.942000    3.488000   14.077000      0.00       1.0080
   238   18   HT        20.479000    3.581000   12.488000      0.00       1.0080
   239   17   OT        18.498000    3.026000    9.381000      0.00      15.9994
   240   18   HT        19.083000    3.797000    8.894000      0.00       1.0080
   241   18   HT        17.460000    3.109000    9.272000      0.00       1.0080
   242   17   OT        19.949000    0.784000   19.442000      0.00      15.9994
   243   18   HT        20.525000    1.591000   19.804000      0.00       1.0080
   244   18   HT        19.959000    0.023000   20.119000      0.00       1.0080
   245   17   OT        -2.113000    2.339000   17.896000      0.00      15.9994
   246   18   HT        -1.482000    3.012000   18.283000      0.00       1.0080
   247   18   HT        -1.757000    1.773000   17.144000      0.00       1.0080
   248   17   OT        20.297000    9.528000   -2.812000      0.00      15.9994
   249   18   HT        19.491000   10.121000   -2.904000      0.00       1.0080
   250   18   HT        20.862000    9.476000   -3.708000      0.00       1.0080
   251   17   OT         0.217000    5.836000   11.243000      0.00      15.9994
   252   18   HT         1.257000    5.990000   11.264000      0.00       1.0080
   253   18   HT         0.084000    4.803000   11.347000      0.00       1.0080
   254   17   OT        20.552000    4.113000    3.174000      0.00      15.9994
   255   18   HT        19.778000    4.672000    3.565000      0.00       1.0080
   256   18   HT        21.429000    4.638000    3.283000      0.00       1.0080
   257   17   OT        15.901000    3.787000    8.624000      0.00      15.9994
   258   18   HT        15.250000    4.571000    8.929000      0.00       1.0080
   259   18   HT        16.031000    3.899000    7.604000      0.00       1.0080
   260   17   OT         6.382000    0.438000   -0.957000      0.00      15.9994
   261   18   HT         5.598000   -0.252000   -1.006000      0.00       1.0080
   262   18   HT         7.096000    0.073000   -0.264000      0.00       1.0080
   263   17   OT         4.178000    6.326000    5.198000      0.00      15.9994
   264   18   HT         3.730000    5.399000    5.024000      0.00       1.0080
   265   18   HT         3.848000    6.475000    6.148000      0.00       1.0080
   266   17   OT        14.891000    9.876000   16.463000      0.00      15.9994
   267   18   HT        14.949000    8.908000   16.846000      0.00       1.0080
   268   18   HT        14.662000    9.783000   15.464000      0.00       1.0080
   269   17   OT        16.863000    2.755000    2.543000      0.00      15.9994
   270   18   HT        17.501000    2.894000    1.710000      0.00       1.0080
   271   18   HT        16.488000    3.721000    2.712000      0.00       1.0080
   272   17   OT        18.103000    0.146000    1.930000      0.00      15.9994
   273   18   HT        17.466000   -0.451000    2.437000      0.00       1.0080
   274   18   HT        17.653000    0.228000    0.996000      0.00       1.0080
   275   17   OT        12.475000    2.191000    6.577000      0.00      15.9994
   276   18   HT        12.495000    3.106000    6.045000      0.00       1.0080
   277   18   HT        13.263000    1.513000    6.479000      0.00       1.0080
   278   17   OT         3.685000   16.506000    5.854000      0.00      15.9994
   279   18   HT         3.268000   17.185000    6.451000      0.00       1.0080
   280   18   HT         3.071000   16.030000    5.226000      0.00       1.0080
   281   17   OT         6.636000   13.207000    1.902000      0.00      15.9994
   282   18   HT         6.574000   13.677000    0.999000      0.00       1.0080
   283   18   HT         7.659000   13.152000    2.137000      0.00       1.0080
   284   17   OT        19.946000    7.650000    0.929000      0.00      15.9994
   285   18   HT        19.596000    7.322000    1.847000      0.00       1.0080
   286   18   HT        19.766000    8.623000    0.590000      0.00       1.0080
   287   17   OT        14.409000    3.096000   18.242000      0.00      15.9994
   288   18   HT        15.330000    3.594000   18.158000      0.00       1.0080
   289   18   HT        14.598000    2.545000   19.125000      0.00       1.0080
   290   17   OT        18.771000    8.782000   10.328000      0.00      15.9994
   291   18   HT        18.425000    7.900000   10.707000      0.00       1.0080
   292   18   HT        19.564000    9.086000   10.895000      0.00       1.0080
   293   19   _QM_      12.062000    9.872000    8.849000      0.00      15.9994
   294   20   _QM_      11.488000    9.046000    8.739000      0.00       1.0080
   295   20   _QM_      12.807000    9.902000    8.161000      0.00       1.0080
   296   17   OT         4.643000   12.827000   11.586000      0.00      15.9994
   297   18   HT         4.357000   11.800000   11.598000      0.00       1.0080
   298   18   HT         5.135000   13.074000   10.728000      0.00       1.0080
   299   17   OT        17.154000   17.940000   14.059000      0.00      15.9994
   300   18   HT        17.136000   18.887000   13.736000      0.00       1.0080
   301   18   HT        17.224000   17.332000   13.270000      0.00       1.0080
   302   17   OT         4.967000   14.605000    3.335000      0.00      15.9994
   303   18   HT         5.594000   14.094000    2.663000      0.00       1.0080
   304   18   HT         5.422000   15.500000    3.529000      0.00       1.0080
   305   17   OT         3.252000   14.547000   -3.137000      0.00      15.9994
   306   18   HT         4.241000   14.289000   -3.276000      0.00       1.0080
   307   18   HT         3.145000   14.457000   -2.106000      0.00       1.0080
   308   17   OT        -0.837000   14.802000    2.860000      0.00      15.9994
   309   18   HT        -0.862000   15.687000    2.319000      0.00       1.0080
   310   18   HT        -0.699000   15.026000    3.833000      0.00       1.0080
   311   17   OT         6.449000   -4.487000    8.083000      0.00      15.9994
   312   18   HT         6.960000   -5.404000    8.000000      0.00       1.0080
   313   18   HT         5.525000   -4.637000    8.440000      0.00       1.0080
   314   17   OT        21.607000    9.665000   19.013000      0.00      15.9994
   315   18   HT        22.534000    9.275000   18.898000      0.00       1.0080
   316   18   HT        21.746000   10.689000   19.073000      0.00       1.0080
   317   19   _QM_       5.185000    9.884000    7.425000      0.00      15.9994
   318   20   _QM_       5.659000    9.962000    6.510000      0.00       1.0080
   319   20   _QM_       4.967000   10.833000    7.750000      0.00       1.0080
   320   17   OT         2.158000   13.054000    8.910000      0.00      15.9994
   321   18   HT         2.252000   13.902000    9.512000      0.00       1.0080
   322   18   HT         1.777000   12.255000    9.511000      0.00       1.0080
   323   17   OT        -1.706000   -2.597000    4.518000      0.00      15.9994
   324   18   HT        -2.491000   -2.018000    4.734000      0.00       1.0080
   325   18   HT        -1.535000   -2.413000    3.523000      0.00       1.0080
   326   17   OT        15.160000   13.960000    7.160000      0.00      15.9994
   327   18   HT        15.104000   13.572000    8.100000      0.00       1.0080
   328   18   HT        14.146000   14.191000    7.015000      0.00       1.0080
   329   17   OT        14.576000   14.075000    3.811000      0.00      15.9994
   330   18   HT        15.107000   13.642000    3.081000      0.00       1.0080
   331   18   HT        15.052000   13.774000    4.684000      0.00       1.0080
   332   17   OT        14.470000   -2.387000    6.139000      0.00      15.9994
   333   18   HT        14.186000   -1.441000    5.981000      0.00       1.0080
   334   18   HT        13.919000   -3.034000    5.553000      0.00       1.0080
   335   17   OT        12.429000   18.370000   10.149000      0.00      15.9994
   336   18   HT        12.785000   17.483000    9.747000      0.00       1.0080
   337   18   HT        12.522000   18.205000   11.141000      0.00       1.0080
   338   17   OT        11.541000   15.306000    4.508000      0.00      15.9994
   339   18   HT        11.171000   15.306000    3.551000      0.00       1.0080
   340   18   HT        11.749000   16.273000    4.622000      0.00       1.0080
   341   17   OT        19.263000   16.533000   15.399000      0.00      15.9994
   342   18   HT        18.647000   17.078000   14.769000      0.00       1.0080
   343   18   HT        20.242000   16.440000   15.010000      0.00       1.0080
   344   17   OT         9.658000   -0.164000   16.212000      0.00      15.9994
   345   18   HT         9.150000   -0.636000   15.460000      0.00       1.0080
   346   18   HT         9.031000   -0.014000   17.052000      0.00       1.0080
   347   17   OT        11.993000    4.899000   -2.760000      0.00      15.9994
   348   18   HT        12.946000    5.393000   -2.707000      0.00       1.0080
   349   18   HT        12.187000    3.914000   -2.732000      0.00       1.0080
   350   17   OT         7.266000   14.304000   -0.616000      0.00      15.9994
   351   18   HT         8.039000   13.876000   -1.100000      0.00       1.0080
   352   18   HT         6.445000   13.965000   -1.045000      0.00       1.0080
   353   17   OT        15.953000   12.941000   12.951000      0.00      15.9994
   354   18   HT        15.536000   13.842000   13.096000      0.00       1.0080
   355   18   HT        16.491000   12.476000   13.744000      0.00       1.0080
   356   17   OT        10.790000   14.654000   -1.155000      0.00      15.9994
   357   18   HT        11.042000   14.945000   -2.084000      0.00       1.0080
   358   18   HT        10.243000   15.339000   -0.696000      0.00       1.0080
   359   17   OT        20.954000   -1.136000   -3.168000      0.00      15.9994
   360   18   HT        21.966000   -1.467000   -3.227000      0.00       1.0080
   361   18   HT        20.500000   -2.058000   -3.254000      0.00       1.0080
   362   17   OT         9.318000   13.994000   12.880000      0.00      15.9994
   363   18   HT         8.397000   13.794000   13.285000      0.00       1.0080
   364   18   HT         9.697000   13.045000   12.791000      0.00       1.0080
   365   17   OT        11.718000   17.841000    3.084000      0.00      15.9994
   366   18   HT        12.397000   17.458000    2.391000      0.00       1.0080
   367   18   HT        10.777000   17.830000    2.669000      0.00       1.0080
   368   17   OT        11.608000    7.779000   17.633000      0.00      15.9994
   369   18   HT        11.862000    6.778000   17.573000      0.00       1.0080
   370   18   HT        10.910000    7.978000   16.862000      0.00       1.0080
   371   17   OT         6.483000   17.147000    3.309000      0.00      15.9994
   372   18   HT         5.839000   17.931000    3.561000      0.00       1.0080
   373   18   HT         7.189000   17.053000    4.076000      0.00       1.0080
   374   17   OT        17.227000   -4.617000   18.862000      0.00      15.9994
   375   18   HT        17.811000   -3.957000   18.300000      0.00       1.0080
   376   18   HT        17.318000   -5.603000   18.533000      0.00       1.0080
   377   17   OT        11.588000    8.688000    5.405000      0.00      15.9994
   378   18   HT        10.669000    8.905000    5.717000      0.00       1.0080
   379   18   HT        12.230000    9.029000    6.169000      0.00       1.0080
   380   17   OT         3.680000    0.772000    1.038000      0.00      15.9994
   381   18   HT         3.840000    0.170000    0.236000      0.00       1.0080
   382   18   HT         3.981000    1.714000    0.787000      0.00       1.0080
   383   17   OT         9.426000   14.911000   20.298000      0.00      15.9994
   384   18   HT         8.649000   15.465000   19.902000      0.00       1.0080
   385   18   HT        10.229000   15.458000   -3.566000      0.00       1.0080
   386   17   OT         7.143000   17.148000   13.821000      0.00      15.9994
   387   18   HT         6.986000   18.165000   13.843000      0.00       1.0080
   388   18   HT         7.663000   16.876000   14.685000      0.00       1.0080
   389   17   OT         0.964000   11.362000   10.543000      0.00      15.9994
   390   18   HT         1.019000   10.308000   10.670000      0.00       1.0080
   391   18   HT         0.011000   11.743000   10.466000      0.00       1.0080
   392   17   OT         0.004000    0.049000    9.161000      0.00      15.9994
   393   18   HT        -0.083000    1.061000    9.267000      0.00       1.0080
   394   18   HT        -0.840000   -0.288000    8.706000      0.00       1.0080
   395   19   _QM_       7.688000   11.239000   12.065000      0.00      15.9994
   396   20   _QM_       7.243000   11.789000   12.765000      0.00       1.0080
   397   20   _QM_       7.409000   11.705000   11.178000      0.00       1.0080
   398   17   OT         8.298000   -4.938000   -2.498000      0.00      15.9994
   399   18   HT         8.753000   -4.353000   -3.256000      0.00       1.0080
   400   18   HT         7.327000   -4.806000   -2.518000      0.00       1.0080
   401   17   OT         5.938000   17.190000   18.414000      0.00      15.9994
   402   18   HT         5.164000   17.490000   18.986000      0.00       1.0080
   403   18   HT         5.299000   16.635000   17.796000      0.00       1.0080
   404   17   OT         4.464000    4.496000    9.724000      0.00      15.9994
   405   18   HT         4.199000    3.894000   10.480000      0.00       1.0080
   406   18   HT         5.402000    4.055000    9.655000      0.00       1.0080
   407   17   OT        15.264000   -2.405000   17.259000      0.00      15.9994
   408   18   HT        14.856000   -2.292000   16.314000      0.00       1.0080
   409   18   HT        15.883000   -3.166000   17.210000      0.00       1.0080
   410   17   OT        -0.534000    8.004000   18.765000      0.00      15.9994
   411   18   HT         0.441000    8.157000   19.051000      0.00       1.0080
   412   18   HT        -0.498000    7.863000   17.771000      0.00       1.0080
   413   17   OT         2.382000    9.969000    8.280000      0.00      15.9994
   414   18   HT         1.617000   10.251000    8.874000      0.00       1.0080
   415   18   HT         3.240000   10.350000    8.650000      0.00       1.0080
   416   17   OT        -1.493000   -4.095000    7.043000      0.00      15.9994
   417   18   HT        -1.781000   -3.507000    6.210000      0.00       1.0080
   418   18   HT        -0.673000   -3.511000    7.278000      0.00       1.0080
   419   17   OT        18.844000    2.918000   -2.462000      0.00      15.9994
   420   18   HT        19.863000    3.084000   -2.553000      0.00       1.0080
   421   18   HT        18.478000    3.901000   -2.509000      0.00       1.0080
   422   17   OT         9.263000    1.106000    7.561000      0.00      15.9994
   423   18   HT         8.677000    0.586000    8.233000      0.00       1.0080
   424   18   HT         9.716000    1.800000    8.142000      0.00       1.0080
   425   17   OT         1.890000   -0.547000   -2.722000      0.00      15.9994
   426   18   HT         2.267000    0.213000   -2.142000      0.00       1.0080
   427   18   HT         0.926000   -0.259000   -2.836000      0.00       1.0080
   428   17   OT         6.579000   -0.592000    6.796000      0.00      15.9994
   429   18   HT         5.645000   -0.135000    7.052000      0.00       1.0080
   430   18   HT         6.581000   -1.434000    6.186000      0.00       1.0080
   431   17   OT        17.062000   18.737000   -1.258000      0.00      15.9994
   432   18   HT        17.208000   19.704000   -1.012000      0.00       1.0080
   433   18   HT        16.072000   18.569000   -1.110000      0.00       1.0080
   434   17   OT        19.240000   14.325000   11.632000      0.00      15.9994
   435   18   HT        18.357000   14.754000   11.860000      0.00       1.0080
   436   18   HT        19.714000   13.985000   12.503000      0.00       1.0080
   437   17   OT         8.402000    8.148000   -1.459000      0.00      15.9994
   438   18   HT         8.927000    7.504000   -2.058000      0.00       1.0080
   439   18   HT         9.142000    8.583000   -0.920000      0.00       1.0080
   440   17   OT        18.039000    0.429000   12.298000      0.00      15.9994
   441   18   HT        18.688000   -0.032000   12.987000      0.00       1.0080
   442   18   HT        17.081000    0.072000   12.385000      0.00       1.0080
   443   17   OT        16.686000   -3.965000   13.087000      0.00      15.9994
   444   18   HT        17.159000   -3.154000   12.631000      0.00       1.0080
   445   18   HT        16.034000   -4.303000   12.406000      0.00       1.0080
   446   17   OT         0.212000    2.723000    9.375000      0.00      15.9994
   447   18   HT        -0.563000    3.148000    8.853000      0.00       1.0080
   448   18   HT         1.019000    3.142000    8.958000      0.00       1.0080
   449   17   OT        13.742000   12.434000   -1.563000      0.00      15.9994
   450   18   HT        13.308000   11.990000   -0.733000      0.00       1.0080
   451   18   HT        13.161000   12.400000   -2.418000      0.00       1.0080
   452   17   OT         0.119000    3.864000   18.769000      0.00      15.9994
   453   18   HT         0.155000    4.329000   19.675000      0.00       1.0080
   454   18   HT         0.970000    3.276000   18.869000      0.00       1.0080
   455   17   OT        -1.152000    3.309000   -0.366000      0.00      15.9994
   456   18   HT        -0.662000    4.180000   -0.524000      0.00       1.0080
   457   18   HT        -0.369000    2.663000   -0.207000      0.00       1.0080
   458   17   OT         5.704000   -3.708000   20.284000      0.00      15.9994
   459   18   HT         5.719000   -3.632000   19.270000      0.00       1.0080
   460   18   HT         5.754000   -2.737000   20.617000      0.00       1.0080
   461   17   OT        11.315000    2.380000    9.009000      0.00      15.9994
   462   18   HT        12.036000    2.327000    9.745000      0.00       1.0080
   463   18   HT        11.694000    2.277000    8.043000      0.00       1.0080
   464   17   OT         2.006000   -3.865000   16.795000      0.00      15.9994
   465   18   HT         2.361000   -2.934000   16.952000      0.00       1.0080
   466   18   HT         1.008000   -3.823000   17.100000      0.00       1.0080
   467   17   OT        14.530000    5.833000   -2.541000      0.00      15.9994
   468   18   HT        14.904000    6.802000   -2.687000      0.00       1.0080
   469   18   HT        15.303000    5.201000   -2.819000      0.00       1.0080
   470   17   OT         6.411000    1.322000   14.829000      0.00      15.9994
   471   18   HT         7.209000    1.916000   14.559000      0.00       1.0080
   472   18   HT         5.843000    1.039000   14.015000      0.00       1.0080
   473   17   OT        14.673000   -5.466000   19.876000      0.00      15.9994
   474   18   HT        14.571000   -5.771000   20.834000      0.00       1.0080
   475   18   HT        15.605000   -5.045000   19.811000      0.00       1.0080
   476   19   _QM_       7.906000   13.481000    5.379000      0.00      15.9994
   477   20   _QM_       7.921000   14.075000    4.553000      0.00       1.0080
   478   20   _QM_       7.023000   13.583000    5.930000      0.00       1.0080
   479   17   OT        11.160000   14.362000   15.302000      0.00      15.9994
   480   18   HT        10.901000   13.443000   15.718000      0.00       1.0080
   481   18   HT        11.152000   14.309000   14.268000      0.00       1.0080
   482   17   OT        10.471000   -2.175000    7.254000      0.00      15.9994
   483   18   HT        10.423000   -1.868000    6.295000      0.00       1.0080
   484   18   HT         9.560000   -2.403000    7.734000      0.00       1.0080
   485   17   OT         0.497000   -5.326000   10.380000      0.00      15.9994
   486   18   HT         0.779000   -6.048000    9.721000      0.00       1.0080
   487   18   HT        -0.499000   -5.007000   10.150000      0.00       1.0080
   488   19   _QM_       6.785000   13.133000   14.089000      0.00      15.9994
   489   20   _QM_       5.858000   13.511000   14.260000      0.00       1.0080
   490   20   _QM_       7.164000   12.997000   15.035000      0.00       1.0080
   491   17   OT         5.913000    6.849000    1.716000      0.00      15.9994
   492   18   HT         5.416000    6.478000    2.516000      0.00       1.0080
   493   18   HT         6.518000    7.433000    2.275000      0.00       1.0080
   494   17   OT         4.117000   -5.108000   15.903000      0.00      15.9994
   495   18   HT         3.219000   -4.765000   16.283000      0.00       1.0080
   496   18   HT         4.118000   -6.159000   15.947000      0.00       1.0080
   497   17   OT         1.179000   -1.068000    0.836000      0.00      15.9994
   498   18   HT         1.784000   -1.014000    0.035000      0.00       1.0080
   499   18   HT         1.550000   -1.750000    1.530000      0.00       1.0080
   500   17   OT        21.237000   13.878000   -1.491000      0.00      15.9994
   501   18   HT        21.130000   13.100000   -2.125000      0.00       1.0080
   502   18   HT        20.739000   13.609000   -0.632000      0.00       1.0080
   503   17   OT         2.332000    3.707000    8.213000      0.00      15.9994
   504   18   HT         2.799000    3.035000    7.610000      0.00       1.0080
   505   18   HT         3.058000    4.212000    8.720000      0.00       1.0080
   506   17   OT         1.486000    8.747000   -3.859000      0.00      15.9994
   507   18   HT         2.225000    9.441000   -4.024000      0.00       1.0080
   508   18   HT         1.944000    8.033000   -3.250000      0.00       1.0080
   509   17   OT        18.742000   16.885000   -2.402000      0.00      15.9994
   510   18   HT        18.298000   17.745000   -2.060000      0.00       1.0080
   511   18   HT        19.547000   16.636000   -1.820000      0.00       1.0080
   512   17   OT        12.947000   17.291000   12.724000      0.00      15.9994
   513   18   HT        12.005000   17.036000   12.923000      0.00       1.0080
   514   18   HT        13.464000   16.463000   12.389000      0.00       1.0080
   515   19   _QM_      10.333000   12.390000    5.785000      0.00      15.9994
   516   20   _QM_      10.531000   11.677000    5.036000      0.00       1.0080
   517   20   _QM_       9.522000   12.962000    5.431000      0.00       1.0080
   518   17   OT        16.970000   -1.864000   -1.863000      0.00      15.9994
   519   18   HT        17.206000   -2.169000   -2.778000      0.00       1.0080
   520   18   HT        16.070000   -2.066000   -1.450000      0.00       1.0080
   521   17   OT        -0.682000   15.868000   16.334000      0.00      15.9994
   522   18   HT        -0.929000   16.233000   17.280000      0.00       1.0080
   523   18   HT        -0.385000   16.628000   15.672000      0.00       1.0080
   524   17   OT        -1.216000   -2.448000   15.636000      0.00      15.9994
   525   18   HT        -1.565000   -3.264000   15.058000      0.00       1.0080
   526   18   HT        -1.068000   -2.926000   16.532000      0.00       1.0080
   527   17   OT         2.671000   13.759000    2.262000      0.00      15.9994
   528   18   HT         3.659000   13.988000    2.459000      0.00       1.0080
   529   18   HT         2.585000   12.982000    2.984000      0.00       1.0080
   530   17   OT        -1.164000   18.209000    4.873000      0.00      15.9994
   531   18   HT        -1.693000   17.375000    5.009000      0.00       1.0080
   532   18   HT        -1.142000   18.793000    5.772000      0.00       1.0080
   533   17   OT         0.386000   10.936000   -0.245000      0.00      15.9994
   534   18   HT         0.282000   11.913000    0.012000      0.00       1.0080
   535   18   HT         0.027000   10.849000   -1.208000      0.00       1.0080
   536   17   OT        -1.858000   11.311000    4.087000      0.00      15.9994
   537   18   HT        -1.237000   11.005000    3.323000      0.00       1.0080
   538   18   HT        -2.627000   11.913000    3.777000      0.00       1.0080
   539   17   OT         7.821000   -2.267000    8.340000      0.00      15.9994
   540   18   HT         7.304000   -3.147000    8.223000      0.00       1.0080
   541   18   HT         7.271000   -1.592000    7.765000      0.00       1.0080
   542   17   OT         6.911000   -4.146000    1.922000      0.00      15.9994
   543   18   HT         7.462000   -4.407000    2.763000      0.00       1.0080
   544   18   HT         6.916000   -3.128000    1.929000      0.00       1.0080
   545   17   OT         2.709000   -3.788000   13.220000      0.00      15.9994
   546   18   HT         3.385000   -4.086000   13.923000      0.00       1.0080
   547   18   HT         2.110000   -4.625000   13.023000      0.00       1.0080
   548   17   OT        -2.000000   15.679000    5.927000      0.00      15.9994
   549   18   HT        -1.036000   15.444000    6.143000      0.00       1.0080
   550   18   HT        -2.488000   14.908000    6.375000      0.00       1.0080
   551   19   _QM_      15.836000    8.497000    8.852000      0.00      15.9994
   552   20   _QM_      16.557000    7.840000    9.069000      0.00       1.0080
   553   20   _QM_      15.732000    9.026000    9.717000      0.00       1.0080
   554   17   OT        12.429000   -4.793000   17.531000      0.00      15.9994
   555   18   HT        13.127000   -4.927000   16.789000      0.00       1.0080
   556   18   HT        12.302000   -3.798000   17.543000      0.00       1.0080
   557   17   OT        19.661000   -0.224000   14.427000      0.00      15.9994
   558   18   HT        20.586000   -0.053000   14.024000      0.00       1.0080
   559   18   HT        19.958000   -0.122000   15.449000      0.00       1.0080
   560   17   OT         2.124000    5.434000   14.512000      0.00      15.9994
   561   18   HT         1.190000    5.353000   14.946000      0.00       1.0080
   562   18   HT         2.681000    4.598000   14.669000      0.00       1.0080
   563   17   OT         3.216000   10.918000   18.067000      0.00      15.9994
   564   18   HT         4.238000   10.711000   17.936000      0.00       1.0080
   565   18   HT         2.606000   10.771000   17.282000      0.00       1.0080
   566   17   OT         1.526000   -5.367000   20.091000      0.00      15.9994
   567   18   HT         1.969000   -4.498000   19.839000      0.00       1.0080
   568   18   HT         2.156000   18.075000   19.868000      0.00       1.0080
   569   17   OT        14.914000    6.358000   12.337000      0.00      15.9994
   570   18   HT        14.125000    6.875000   12.765000      0.00       1.0080
   571   18   HT        14.823000    6.313000   11.310000      0.00       1.0080
   572   17   OT         8.775000    0.203000    0.910000      0.00      15.9994
   573   18   HT         8.695000    1.199000    1.142000      0.00       1.0080
   574   18   HT         9.785000   -0.012000    0.832000      0.00       1.0080
   575   17   OT        -0.774000   15.966000   -3.155000      0.00      15.9994
   576   18   HT        -1.512000   15.866000   -2.427000      0.00       1.0080
   577   18   HT         0.020000   15.459000   -2.691000      0.00       1.0080
   578   17   OT         5.907000   -1.744000   10.921000      0.00      15.9994
   579   18   HT         6.048000   -1.793000    9.884000      0.00       1.0080
   580   18   HT         6.853000   -1.783000   11.396000      0.00       1.0080
   581   17   OT         7.300000   -4.315000   17.820000      0.00      15.9994
   582   18   HT         7.007000   -5.130000   17.279000      0.00       1.0080
   583   18   HT         7.923000   -4.749000   18.508000      0.00       1.0080
   584   17   OT         8.297000   17.427000   19.433000      0.00      15.9994
   585   18   HT         8.196000   18.092000   20.247000      0.00       1.0080
   586   18   HT         7.331000   17.349000   19.078000      0.00       1.0080
   587   17   OT         2.637000   -5.230000    6.301000      0.00      15.9994
   588   18   HT         2.327000   -4.252000    6.264000      0.00       1.0080
   589   18   HT         3.350000   -5.442000    5.590000      0.00       1.0080
   590   17   OT         5.101000    2.893000    0.065000      0.00      15.9994
   591   18   HT         5.713000    3.642000   -0.140000      0.00       1.0080
   592   18   HT         5.660000    2.119000   -0.079000      0.00       1.0080
   593   17   OT        14.467000   17.930000    7.223000      0.00      15.9994
   594   18   HT        13.869000   18.704000    6.839000      0.00       1.0080
   595   18   HT        14.540000   17.283000    6.449000      0.00       1.0080
   596   17   OT        -0.641000    7.423000    5.458000      0.00      15.9994
   597   18   HT        -0.978000    6.613000    4.975000      0.00       1.0080
   598   18   HT         0.334000    7.203000    5.851000      0.00       1.0080
   599   17   OT         9.248000    3.838000   18.343000      0.00      15.9994
   600   18   HT         8.947000    4.224000   19.264000      0.00       1.0080
   601   18   HT         9.215000    2.808000   18.336000      0.00       1.0080
   602   17   OT        16.454000    6.060000   16.706000      0.00      15.9994
   603   18   HT        16.974000    6.873000   16.333000      0.00       1.0080
   604   18   HT        15.925000    5.631000   15.931000      0.00       1.0080
   605   17   OT         0.951000   15.077000   -1.327000      0.00      15.9994
   606   18   HT         1.121000   16.042000   -0.936000      0.00       1.0080
   607   18   HT         0.547000   14.405000   -0.657000      0.00       1.0080
   608   17   OT         1.568000   18.052000   12.659000      0.00      15.9994
   609   18   HT         1.208000   18.403000   11.743000      0.00       1.0080
   610   18   HT         1.834000   17.065000   12.534000      0.00       1.0080
   611   17   OT        13.779000    5.424000    9.446000      0.00      15.9994
   612   18   HT        12.913000    5.438000    9.966000      0.00       1.0080
   613   18   HT        13.478000    5.624000    8.479000      0.00       1.0080
   614   17   OT        19.791000   15.258000    8.000000      0.00      15.9994
   615   18   HT        18.924000   15.112000    8.555000      0.00       1.0080
   616   18   HT        20.404000   14.466000    7.905000      0.00       1.0080
   617   17   OT        18.167000    3.159000   12.076000      0.00      15.9994
   618   18   HT        18.073000    2.119000   12.003000      0.00       1.0080
   619   18   HT        18.109000    3.440000   11.064000      0.00       1.0080
   620   17   OT         9.576000    2.505000   -2.602000      0.00      15.9994
   621   18   HT         9.530000    3.200000   -1.893000      0.00       1.0080
   622   18   HT        10.538000    2.244000   -2.396000      0.00       1.0080
   623   17   OT         4.319000   -4.934000    3.815000      0.00      15.9994
   624   18   HT         4.805000   -4.088000    3.643000      0.00       1.0080
   625   18   HT         3.348000   -4.909000    3.588000      0.00       1.0080
   626   17   OT         5.186000    7.840000   11.181000      0.00      15.9994
   627   18   HT         5.693000    8.121000   10.325000      0.00       1.0080
   628   18   HT         5.894000    7.991000   11.960000      0.00       1.0080
   629   17   OT        19.496000   12.484000   -3.535000      0.00      15.9994
   630   18   HT        18.684000   11.960000   -3.746000      0.00       1.0080
   631   18   HT        19.004000   13.377000   -3.597000      0.00       1.0080
   632   17   OT         3.680000    2.084000    5.681000      0.00      15.9994
   633   18   HT         3.348000    1.427000    4.974000      0.00       1.0080
   634   18   HT         3.128000    2.882000    5.476000      0.00       1.0080
   635   17   OT        -1.268000    6.073000   13.459000      0.00      15.9994
   636   18   HT        -2.016000    5.370000   13.601000      0.00       1.0080
   637   18   HT        -0.519000    5.884000   12.749000      0.00       1.0080
   638   17   OT        12.328000    5.217000   17.073000      0.00      15.9994
   639   18   HT        13.149000    4.682000   17.261000      0.00       1.0080
   640   18   HT        11.566000    4.678000   17.461000      0.00       1.0080
   641   17   OT        17.472000    4.077000   18.301000      0.00      15.9994
   642   18   HT        18.179000    3.568000   17.780000      0.00       1.0080
   643   18   HT        17.267000    5.001000   17.830000      0.00       1.0080
   644   17   OT        15.081000    9.429000   -0.438000      0.00      15.9994
   645   18   HT        15.801000   10.215000   -0.412000      0.00       1.0080
   646   18   HT        15.453000    8.466000   -0.369000      0.00       1.0080
   647   17   OT        -1.630000   16.472000   12.214000      0.00      15.9994
   648   18   HT        -2.154000   16.262000   13.050000      0.00       1.0080
   649   18   HT        -1.176000   17.359000   12.227000      0.00       1.0080
   650   17   OT         0.789000    1.714000    0.588000      0.00      15.9994
   651   18   HT         1.512000    1.949000   -0.131000      0.00       1.0080
   652   18   HT         0.901000    0.707000    0.673000      0.00       1.0080
   653   17   OT        12.475000    9.654000   19.792000      0.00      15.9994
   654   18   HT        12.191000    8.942000   19.059000      0.00       1.0080
   655   18   HT        12.354000    9.364000   20.770000      0.00       1.0080
   656   17   OT         8.742000   17.127000   16.442000      0.00      15.9994
   657   18   HT         9.724000   17.036000   16.293000      0.00       1.0080
   658   18   HT         8.546000   16.881000   17.399000      0.00       1.0080
   659   17   OT        16.389000   11.871000   -1.683000      0.00      15.9994
   660   18   HT        16.644000   11.373000   -2.582000      0.00       1.0080
   661   18   HT        15.322000   11.868000   -1.746000      0.00       1.0080
   662   17   OT        21.628000   12.671000   19.163000      0.00      15.9994
   663   18   HT        20.774000   12.475000   19.647000      0.00       1.0080
   664   18   HT        21.660000   13.703000   19.397000      0.00       1.0080
   665   17   OT         4.042000   -1.152000   -0.731000      0.00      15.9994
   666   18   HT         4.015000   -1.944000   -0.057000      0.00       1.0080
   667   18   HT         3.667000   -1.562000   -1.570000      0.00       1.0080
   668   17   OT        18.157000    7.955000   15.406000      0.00      15.9994
   669   18   HT        18.224000    8.826000   15.918000      0.00       1.0080
   670   18   HT        18.962000    7.383000   15.607000      0.00       1.0080
   671   17   OT        -0.924000   16.708000    1.257000      0.00      15.9994
   672   18   HT        -0.020000   16.992000    0.807000      0.00       1.0080
   673   18   HT        -1.552000   17.492000    1.508000      0.00       1.0080
   674   17   OT        20.702000   12.996000   14.195000      0.00      15.9994
   675   18   HT        21.510000   12.423000   13.972000      0.00       1.0080
   676   18   HT        20.480000   12.857000   15.200000      0.00       1.0080
   677   19   _QM_       4.329000   13.026000   15.878000      0.00      15.9994
   678   20   _QM_       3.443000   13.504000   15.926000      0.00       1.0080
   679   20   _QM_       4.816000   13.175000   16.772000      0.00       1.0080
   680   17   OT         6.490000    6.515000   -0.720000      0.00      15.9994
   681   18   HT         7.310000    7.147000   -0.764000      0.00       1.0080
   682   18   HT         6.037000    6.584000    0.242000      0.00       1.0080
   683   17   OT        10.366000   12.040000   -1.712000      0.00      15.9994
   684   18   HT        10.466000   12.987000   -1.313000      0.00       1.0080
   685   18   HT        10.869000   12.304000   -2.580000      0.00       1.0080
   686   17   OT        20.409000   -4.140000   14.370000      0.00      15.9994
   687   18   HT        19.931000   -4.897000   13.854000      0.00       1.0080
   688   18   HT        20.718000   -3.443000   13.685000      0.00       1.0080
   689   17   OT        15.544000   -5.412000   10.937000      0.00      15.9994
   690   18   HT        14.687000   -5.466000   10.408000      0.00       1.0080
   691   18   HT        16.248000   -5.372000   10.167000      0.00       1.0080
   692   17   OT        13.282000   10.871000   11.180000      0.00      15.9994
   693   18   HT        14.319000   10.777000   11.047000      0.00       1.0080
   694   18   HT        12.923000   10.498000   10.266000      0.00       1.0080
   695   17   OT         3.736000   -1.670000    5.231000      0.00      15.9994
   696   18   HT         3.570000   -1.107000    6.060000      0.00       1.0080
   697   18   HT         4.638000   -2.167000    5.267000      0.00       1.0080
   698   17   OT         2.336000    0.505000    4.005000      0.00      15.9994
   699   18   HT         2.640000    0.621000    2.995000      0.00       1.0080
   700   18   HT         2.714000   -0.474000    4.264000      0.00       1.0080
   701   17   OT        15.097000   -2.585000    0.259000      0.00      15.9994
   702   18   HT        14.573000   -3.177000    0.935000      0.00       1.0080
   703   18   HT        14.928000   -1.589000    0.466000      0.00       1.0080
   704   17   OT         8.421000   -2.284000   12.083000      0.00      15.9994
   705   18   HT         9.247000   -1.713000   11.803000      0.00       1.0080
   706   18   HT         8.645000   -3.290000   12.278000      0.00       1.0080
   707   17   OT         6.195000    7.992000    4.603000      0.00      15.9994
   708   18   HT         6.673000    8.445000    5.448000      0.00       1.0080
   709   18   HT         5.390000    7.388000    4.795000      0.00       1.0080
   710   17   OT         0.771000   15.731000    5.654000      0.00      15.9994
   711   18   HT         1.014000   16.107000    4.746000      0.00       1.0080
   712   18   HT         1.346000   14.866000    5.837000      0.00       1.0080
   713   19   _QM_       8.893000    8.802000   15.834000      0.00      15.9994
   714   20   _QM_       9.380000    9.329000   16.644000      0.00       1.0080
   715   20   _QM_       8.163000    8.210000   16.258000      0.00       1.0080
   716   17   OT        15.942000    5.155000    3.060000      0.00      15.9994
   717   18   HT        16.458000    5.426000    3.888000      0.00       1.0080
   718   18   HT        15.224000    5.781000    2.751000      0.00       1.0080
   719   17   OT        17.986000   11.285000    2.917000      0.00      15.9994
   720   18   HT        18.487000   11.002000    2.063000      0.00       1.0080
   721   18   HT        18.635000   11.388000    3.697000      0.00       1.0080
   722   17   OT         2.680000   -2.875000   19.768000      0.00      15.9994
   723   18   HT         2.390000   -2.039000   20.264000      0.00       1.0080
   724   18   HT         3.181000   -2.640000   18.914000      0.00       1.0080
   725   17   OT        15.005000    4.818000   14.783000      0.00      15.9994
   726   18   HT        14.266000    4.112000   14.799000      0.00       1.0080
   727   18   HT        14.811000    5.507000   14.052000      0.00       1.0080
   728   17   OT        20.464000   15.238000   17.291000      0.00      15.9994
   729   18   HT        19.876000   15.622000   16.568000      0.00       1.0080
   730   18   HT        20.500000   15.838000   18.112000      0.00       1.0080
   731   17   OT         9.572000    6.415000   -3.722000      0.00      15.9994
   732   18   HT        10.395000    5.960000   -3.279000      0.00       1.0080
   733   18   HT         8.813000    5.765000   -3.623000      0.00       1.0080
   734   17   OT         5.900000    3.472000   18.043000      0.00      15.9994
   735   18   HT         5.828000    2.498000   18.309000      0.00       1.0080
   736   18   HT         6.722000    3.847000   18.447000      0.00       1.0080
   737   17   OT        19.040000    8.831000   18.576000      0.00      15.9994
   738   18   HT        19.979000    9.162000   18.719000      0.00       1.0080
   739   18   HT        18.873000    7.830000   18.782000      0.00       1.0080
   740   17   OT         9.707000   13.224000   18.369000      0.00      15.9994
   741   18   HT        10.653000   13.363000   18.027000      0.00       1.0080
   742   18   HT         9.504000   13.894000   19.149000      0.00       1.0080
   743   17   OT        18.716000   -2.538000   15.964000      0.00      15.9994
   744   18   HT        19.201000   -1.825000   15.366000      0.00       1.0080
   745   18   HT        17.902000   -2.892000   15.468000      0.00       1.0080
   746   17   OT        15.120000    1.104000   14.760000      0.00      15.9994
   747   18   HT        15.153000    0.440000   14.025000      0.00       1.0080
   748   18   HT        16.090000    1.279000   15.103000      0.00       1.0080
   749   17   OT        20.743000   13.559000    3.150000      0.00      15.9994
   750   18   HT        20.014000   14.289000    3.145000      0.00       1.0080
   751   18   HT        21.599000   14.154000    3.148000      0.00       1.0080
   752   17   OT         4.359000   10.425000   14.518000      0.00      15.9994
   753   18   HT         3.455000   10.074000   14.829000      0.00       1.0080
   754   18   HT         4.564000   11.300000   15.021000      0.00       1.0080
   755   17   OT        21.260000    8.743000    4.684000      0.00      15.9994
   756   18   HT        21.381000    9.717000    4.323000      0.00       1.0080
   757   18   HT        22.118000    8.427000    5.229000      0.00       1.0080
   758   17   OT        12.411000   14.378000   12.473000      0.00      15.9994
   759   18   HT        12.201000   13.484000   12.903000      0.00       1.0080
   760   18   HT        11.742000   14.466000   11.665000      0.00       1.0080
   761   17   OT         7.858000    1.252000   10.365000      0.00      15.9994
   762   18   HT         7.322000    2.018000   10.766000      0.00       1.0080
   763   18   HT         7.875000    0.502000   11.053000      0.00       1.0080
   764   17   OT        17.093000    4.866000   -3.399000      0.00      15.9994
   765   18   HT        17.661000    5.583000   -3.836000      0.00       1.0080
   766   18   HT        17.101000    4.051000   -4.021000      0.00       1.0080
   767   17   OT         0.530000    3.009000    2.939000      0.00      15.9994
   768   18   HT         0.771000    2.507000    2.072000      0.00       1.0080
   769   18   HT         0.114000    2.290000    3.564000      0.00       1.0080
   770   17   OT        13.034000   12.340000    1.274000      0.00      15.9994
   771   18   HT        12.373000   12.132000    2.024000      0.00       1.0080
   772   18   HT        14.020000   12.154000    1.594000      0.00       1.0080
   773   17   OT        20.567000   16.927000    9.941000      0.00      15.9994
   774   18   HT        21.161000   16.493000   10.670000      0.00       1.0080
   775   18   HT        20.250000   16.334000    9.154000      0.00       1.0080
   776   17   OT        14.754000   17.413000   15.772000      0.00      15.9994
   777   18   HT        14.759000   16.975000   16.702000      0.00       1.0080
   778   18   HT        15.712000   17.590000   15.340000      0.00       1.0080
   779   17   OT        12.446000    2.325000   -1.739000      0.00      15.9994
   780   18   HT        12.245000    2.423000   -0.746000      0.00       1.0080
   781   18   HT        13.267000    1.674000   -1.737000      0.00       1.0080
   782   17   OT        16.113000   15.783000   -0.881000      0.00      15.9994
   783   18   HT        15.467000   15.313000   -1.542000      0.00       1.0080
   784   18   HT        16.232000   16.748000   -1.104000      0.00       1.0080
   785   17   OT         4.966000   -0.203000   12.927000      0.00      15.9994
   786   18   HT         5.187000   -0.818000   12.124000      0.00       1.0080
   787   18   HT         4.253000   -0.627000   13.527000      0.00       1.0080
   788   17   OT         2.310000    9.340000    2.954000      0.00      15.9994
   789   18   HT         2.202000    9.071000    3.916000      0.00       1.0080
   790   18   HT         3.259000    9.771000    2.779000      0.00       1.0080
   791   17   OT        12.913000   -2.813000    3.755000      0.00      15.9994
   792   18   HT        11.867000   -2.672000    3.816000      0.00       1.0080
   793   18   HT        13.061000   -3.641000    3.164000      0.00       1.0080
   794   17   OT        21.298000    9.931000   11.330000      0.00      15.9994
   795   18   HT        21.629000    9.362000   12.151000      0.00       1.0080
   796   18   HT        21.880000   10.769000   11.295000      0.00       1.0080
   797   17   OT        -0.656000   -0.985000   11.703000      0.00      15.9994
   798   18   HT        -0.352000   -0.572000   10.818000      0.00       1.0080
   799   18   HT         0.045000   -0.929000   12.449000      0.00       1.0080
   800   17   OT         8.457000    3.091000   14.232000      0.00      15.9994
   801   18   HT         7.974000    3.752000   13.565000      0.00       1.0080
   802   18   HT         8.783000    3.749000   14.976000      0.00       1.0080
   803   17   OT        10.865000    5.431000   -0.197000      0.00      15.9994
   804   18   HT        11.164000    5.299000   -1.158000      0.00       1.0080
   805   18   HT        11.667000    5.713000    0.400000      0.00       1.0080
   806   17   OT         0.007000    8.409000    8.569000      0.00      15.9994
   807   18   HT        -0.828000    8.977000    8.416000      0.00       1.0080
   808   18   HT         0.780000    8.873000    8.063000      0.00       1.0080
   809   17   OT        17.660000   -4.674000    4.610000      0.00      15.9994
   810   18   HT        17.801000   -3.908000    5.318000      0.00       1.0080
   811   18   HT        18.403000   -5.343000    4.770000      0.00       1.0080
   812   17   OT         3.429000   17.051000   20.060000      0.00      15.9994
   813   18   HT         3.068000   16.093000   20.289000      0.00       1.0080
   814   18   HT         3.826000   17.397000   20.975000      0.00       1.0080
   815   17   OT        14.477000   17.926000   -1.550000      0.00      15.9994
   816   18   HT        14.362000   17.082000   -1.001000      0.00       1.0080
   817   18   HT        13.533000   18.353000   -1.600000      0.00       1.0080
   818   19   _QM_       6.616000    8.406000    9.241000      0.00      15.9994
   819   20   _QM_       6.136000    8.797000    8.428000      0.00       1.0080
   820   20   _QM_       7.290000    7.669000    9.001000      0.00       1.0080
   821   17   OT        -0.484000   11.662000    6.363000      0.00      15.9994
   822   18   HT        -0.918000   11.421000    5.435000      0.00       1.0080
   823   18   HT        -0.325000   10.805000    6.855000      0.00       1.0080
   824   17   OT        14.666000    0.906000   -1.481000      0.00      15.9994
   825   18   HT        14.684000    0.857000   -0.441000      0.00       1.0080
   826   18   HT        14.541000   -0.150000   -1.629000      0.00       1.0080
   827   17   OT        10.091000   -1.812000    3.912000      0.00      15.9994
   828   18   HT         9.161000   -1.804000    3.389000      0.00       1.0080
   829   18   HT        10.142000   -0.886000    4.336000      0.00       1.0080
   830   17   OT        -1.387000   12.403000   10.585000      0.00      15.9994
   831   18   HT        -1.893000   12.871000    9.801000      0.00       1.0080
   832   18   HT        -0.961000   13.083000   11.258000      0.00       1.0080
   833   17   OT        21.499000   18.767000   16.484000      0.00      15.9994
   834   18   HT        20.946000   -4.871000   15.839000      0.00       1.0080
   835   18   HT        21.096000   17.868000   16.494000      0.00       1.0080
   836   17   OT        10.746000   15.217000    1.942000      0.00      15.9994
   837   18   HT        11.493000   14.695000    1.550000      0.00       1.0080
   838   18   HT        10.622000   16.067000    1.316000      0.00       1.0080
   839   17   OT         0.081000   -0.606000   14.262000      0.00      15.9994
   840   18   HT        -0.204000    0.274000   14.701000      0.00       1.0080
   841   18   HT        -0.441000   -1.390000   14.815000      0.00       1.0080
   842   17   OT         5.812000   10.360000   17.445000      0.00      15.9994
   843   18   HT         6.133000   10.828000   18.344000      0.00       1.0080
   844   18   HT         6.532000    9.794000   17.003000      0.00       1.0080
   845   17   OT        12.117000   11.671000   15.876000      0.00      15.9994
   846   18   HT        11.993000   11.450000   14.885000      0.00       1.0080
   847   18   HT        13.036000   11.445000   16.260000      0.00       1.0080
[...]
  1195   18   HT         6.558000    8.009000   19.676000      0.00       1.0080
  1196   17   OT         5.771000   14.612000    6.525000      0.00      15.9994
  1197   18   HT         4.906000   15.134000    6.202000      0.00       1.0080
  1198   18   HT         6.407000   15.369000    6.705000      0.00       1.0080
  1199   17   OT        15.586000    1.885000   20.288000      0.00      15.9994
  1200   18   HT        15.619000    1.712000   21.314000      0.00       1.0080
  1201   18   HT        16.456000    1.509000   19.915000      0.00       1.0080
  1202   17   OT        17.349000    0.590000   18.479000      0.00      15.9994
  1203   18   HT        18.315000    0.759000   18.747000      0.00       1.0080
  1204   18   HT        17.446000    0.699000   17.440000      0.00       1.0080
  1205   17   OT        12.528000    2.650000   11.536000      0.00      15.9994
  1206   18   HT        11.640000    3.197000   11.557000      0.00       1.0080
  1207   18   HT        12.966000    2.897000   12.394000      0.00       1.0080
  1208   17   OT         0.996000   -5.443000    2.970000      0.00      15.9994
  1209   18   HT         0.483000   -5.582000    3.816000      0.00       1.0080
  1210   18   HT         1.257000   -6.339000    2.567000      0.00       1.0080
  1211   17   OT         4.694000   18.543000   -2.386000      0.00      15.9994
  1212   18   HT         4.833000   18.916000   -1.434000      0.00       1.0080
  1213   18   HT         4.886000   19.341000   -3.043000      0.00       1.0080
  1214   17   OT        -2.130000   -0.960000    7.726000      0.00      15.9994
  1215   18   HT        -2.592000   -0.946000    6.803000      0.00       1.0080
  1216   18   HT        -2.814000   -0.721000    8.406000      0.00       1.0080
  1217   17   OT        19.941000   -3.816000   -3.753000      0.00      15.9994
  1218   18   HT        20.182000   -4.707000   -4.163000      0.00       1.0080
  1219   18   HT        19.463000   -3.314000   -4.548000      0.00       1.0080
  1220   17   OT        13.009000    4.197000    4.731000      0.00      15.9994
  1221   18   HT        12.774000    4.847000    3.925000      0.00       1.0080
  1222   18   HT        13.510000    3.480000    4.238000      0.00       1.0080
  1223   17   OT         9.222000   -2.837000   20.282000      0.00      15.9994
  1224   18   HT        10.201000   -2.620000   20.068000      0.00       1.0080
  1225   18   HT         8.682000   -1.997000   20.368000      0.00       1.0080
  1226   17   OT        15.917000   15.195000   18.282000      0.00      15.9994
  1227   18   HT        15.061000   15.786000   18.424000      0.00       1.0080
  1228   18   HT        15.572000   14.429000   17.679000      0.00       1.0080
  1229   17   OT         1.783000   13.446000    6.234000      0.00      15.9994
  1230   18   HT         2.012000   13.340000    7.237000      0.00       1.0080
  1231   18   HT         1.159000   12.638000    5.943000      0.00       1.0080
  1232   17   OT        -0.154000    4.615000   15.952000      0.00      15.9994
  1233   18   HT        -0.806000    3.950000   15.575000      0.00       1.0080
  1234   18   HT        -0.104000    4.199000   16.897000      0.00       1.0080
  1235   17   OT         8.474000   -5.196000   10.234000      0.00      15.9994
  1236   18   HT         8.734000   -4.916000   11.164000      0.00       1.0080
  1237   18   HT         7.799000   -4.596000    9.849000      0.00       1.0080
  1238   17   OT        17.331000    7.052000   12.862000      0.00      15.9994
  1239   18   HT        16.457000    6.549000   12.811000      0.00       1.0080
  1240   18   HT        17.289000    7.531000   13.787000      0.00       1.0080
  1241   17   OT         4.073000   16.776000    1.131000      0.00      15.9994
  1242   18   HT         4.542000   16.053000    0.557000      0.00       1.0080
  1243   18   HT         4.438000   17.718000    0.812000      0.00       1.0080
  1244   17   OT        12.103000   16.210000   -3.355000      0.00      15.9994
  1245   18   HT        13.005000   15.740000   -3.235000      0.00       1.0080
  1246   18   HT        12.287000   17.181000   -3.423000      0.00       1.0080
  1247   17   OT        14.778000    9.466000   13.896000      0.00      15.9994
  1248   18   HT        13.978000    8.831000   13.737000      0.00       1.0080
  1249   18   HT        15.331000    9.487000   13.028000      0.00       1.0080
  1250   19   _QM_       8.041000   13.816000   16.423000      0.00      15.9994
  1251   20   _QM_       8.711000   13.379000   17.093000      0.00       1.0080
  1252   20   _QM_       8.501000   14.390000   15.737000      0.00       1.0080
  1253   17   OT         0.928000   10.494000   15.806000      0.00      15.9994
  1254   18   HT         0.687000   11.212000   15.139000      0.00       1.0080
  1255   18   HT         0.480000   10.682000   16.715000      0.00       1.0080
  1256   17   OT         2.752000   -3.602000    9.803000      0.00      15.9994
  1257   18   HT         3.706000   -3.880000   10.130000      0.00       1.0080
  1258   18   HT         1.892000   -4.114000   10.101000      0.00       1.0080
  1259   17   OT        17.619000   13.886000    6.156000      0.00      15.9994
  1260   18   HT        17.992000   14.856000    6.060000      0.00       1.0080
  1261   18   HT        16.673000   13.920000    6.644000      0.00       1.0080
  1262   17   OT        19.389000    7.020000    3.418000      0.00      15.9994
  1263   18   HT        18.575000    6.709000    4.000000      0.00       1.0080
  1264   18   HT        20.071000    7.633000    3.912000      0.00       1.0080
  1265   17   OT        -0.830000   13.421000    0.449000      0.00      15.9994
  1266   18   HT        -0.778000   13.874000    1.390000      0.00       1.0080
  1267   18   HT        -1.825000   13.389000    0.166000      0.00       1.0080
  1268   17   OT        16.417000    3.729000   -0.900000      0.00      15.9994
  1269   18   HT        17.076000    2.949000   -0.889000      0.00       1.0080
  1270   18   HT        16.779000    4.506000   -1.505000      0.00       1.0080
  1271   17   OT         1.468000    6.822000   16.822000      0.00      15.9994
  1272   18   HT         0.979000    5.969000   17.061000      0.00       1.0080
  1273   18   HT         1.662000    6.742000   15.825000      0.00       1.0080
  1274   17   OT         5.185000   -0.597000    2.982000      0.00      15.9994
  1275   18   HT         4.593000   -0.235000    2.219000      0.00       1.0080
  1276   18   HT         4.819000   -0.797000    3.920000      0.00       1.0080
  1277   19   _QM_       9.455000   11.215000    8.239000      0.00      15.9994
  1278   20   _QM_       9.653000   12.025000    7.569000      0.00       1.0080
  1279   20   _QM_      10.307000   10.794000    8.535000      0.00       1.0080
  1280   17   OT        20.202000    6.280000   15.313000      0.00      15.9994
  1281   18   HT        20.130000    5.676000   16.108000      0.00       1.0080
  1282   18   HT        21.134000    6.712000   15.306000      0.00       1.0080
  1283   17   OT        17.336000    6.492000    5.064000      0.00      15.9994
  1284   18   HT        17.893000    7.086000    5.752000      0.00       1.0080
  1285   18   HT        17.016000    5.644000    5.577000      0.00       1.0080
  1286   17   OT         0.984000   18.174000   15.339000      0.00      15.9994
  1287   18   HT         1.152000   18.217000   14.324000      0.00       1.0080
  1288   18   HT         1.441000   18.995000   15.689000      0.00       1.0080
  1289   17   OT        11.332000    5.266000   14.190000      0.00      15.9994
  1290   18   HT        10.688000    5.430000   14.995000      0.00       1.0080
  1291   18   HT        11.969000    4.524000   14.534000      0.00       1.0080
  1292   17   OT        19.925000   17.290000   19.447000      0.00      15.9994
  1293   18   HT        19.442000   17.262000   20.374000      0.00       1.0080
  1294   18   HT        19.157000   17.367000   18.826000      0.00       1.0080
  1295   17   OT        21.618000   15.639000   14.475000      0.00      15.9994
  1296   18   HT        21.285000   14.669000   14.340000      0.00       1.0080
  1297   18   HT        22.183000   15.693000   15.323000      0.00       1.0080
  1298   17   OT        12.147000   14.359000    6.983000      0.00      15.9994
  1299   18   HT        11.540000   13.516000    6.866000      0.00       1.0080
  1300   18   HT        12.063000   14.885000    6.097000      0.00       1.0080
  1301   17   OT        10.256000   16.988000    0.145000      0.00      15.9994
  1302   18   HT        10.635000   17.892000   -0.145000      0.00       1.0080
  1303   18   HT         9.208000   17.169000    0.281000      0.00       1.0080
  1304   17   OT        12.873000    7.561000   14.014000      0.00      15.9994
  1305   18   HT        12.391000    6.681000   14.145000      0.00       1.0080
  1306   18   HT        12.064000    8.240000   13.746000      0.00       1.0080
  1307   17   OT        -1.094000   11.758000   13.961000      0.00      15.9994
  1308   18   HT        -1.187000   10.988000   13.331000      0.00       1.0080
  1309   18   HT        -0.694000   12.581000   13.531000      0.00       1.0080
  1310   17   OT         4.777000    6.620000   15.673000      0.00      15.9994
  1311   18   HT         4.460000    7.211000   16.463000      0.00       1.0080
  1312   18   HT         4.503000    7.170000   14.840000      0.00       1.0080
  1313   17   OT        17.180000    3.277000   14.761000      0.00      15.9994
  1314   18   HT        17.839000    3.379000   13.901000      0.00       1.0080
  1315   18   HT        16.231000    3.779000   14.650000      0.00       1.0080
  1316   17   OT        14.222000   -0.915000   10.348000      0.00      15.9994
  1317   18   HT        13.254000   -1.170000   10.297000      0.00       1.0080
  1318   18   HT        14.295000    0.122000   10.216000      0.00       1.0080
  1319   17   OT        13.077000    2.887000   14.554000      0.00      15.9994
  1320   18   HT        12.131000    2.446000   14.590000      0.00       1.0080
  1321   18   HT        13.702000    2.139000   14.788000      0.00       1.0080
  1322   17   OT        18.496000   -3.446000    0.399000      0.00      15.9994
  1323   18   HT        19.324000   -3.645000   -0.210000      0.00       1.0080
  1324   18   HT        17.766000   -2.906000   -0.116000      0.00       1.0080
  1325   17   OT        17.450000   -4.083000    9.322000      0.00      15.9994
  1326   18   HT        17.930000   -3.676000   10.130000      0.00       1.0080
  1327   18   HT        16.775000   -3.352000    9.127000      0.00       1.0080
  1328   17   OT        18.808000   -2.944000   11.370000      0.00      15.9994
  1329   18   HT        19.757000   -2.886000   11.762000      0.00       1.0080
  1330   18   HT        18.739000   -2.185000   10.650000      0.00       1.0080
  1331   17   OT        21.336000   16.435000   -1.318000      0.00      15.9994
  1332   18   HT        21.091000   15.455000   -1.311000      0.00       1.0080
  1333   18   HT        21.583000   16.872000   -0.408000      0.00       1.0080
  1334   17   OT        17.816000   -2.303000    3.306000      0.00      15.9994
  1335   18   HT        18.426000   -2.236000    2.446000      0.00       1.0080
  1336   18   HT        17.736000   -3.267000    3.581000      0.00       1.0080
  1337   17   OT        14.472000   -2.138000   14.560000      0.00      15.9994
  1338   18   HT        14.302000   -3.123000   14.303000      0.00       1.0080
  1339   18   HT        13.609000   -1.769000   15.011000      0.00       1.0080
  1340   17   OT        16.266000   11.493000    5.754000      0.00      15.9994
  1341   18   HT        16.196000   11.485000    4.765000      0.00       1.0080
  1342   18   HT        16.648000   12.368000    6.131000      0.00       1.0080
  1343   17   OT        19.744000   10.242000    0.067000      0.00      15.9994
  1344   18   HT        20.045000   11.173000    0.375000      0.00       1.0080
  1345   18   HT        20.160000    9.949000   -0.855000      0.00       1.0080
  1346   17   OT        -0.248000   11.691000   18.193000      0.00      15.9994
  1347   18   HT        -1.193000   12.079000   18.400000      0.00       1.0080
  1348   18   HT         0.378000   12.529000   18.334000      0.00       1.0080
  1349   17   OT        18.341000   10.592000    8.037000      0.00      15.9994
  1350   18   HT        17.741000   11.364000    8.215000      0.00       1.0080
  1351   18   HT        18.326000   10.025000    8.923000      0.00       1.0080
  1352   17   OT        19.689000    4.989000    7.899000      0.00      15.9994
  1353   18   HT        19.978000    4.196000    7.281000      0.00       1.0080
  1354   18   HT        20.121000    5.877000    7.663000      0.00       1.0080
  1355   17   OT        15.777000   -0.630000   12.685000      0.00      15.9994
  1356   18   HT        15.212000   -0.779000   11.826000      0.00       1.0080
  1357   18   HT        15.430000   -1.281000   13.416000      0.00       1.0080
  1358   17   OT         9.135000   -4.276000    0.109000      0.00      15.9994
  1359   18   HT         8.806000   -4.359000   -0.877000      0.00       1.0080
  1360   18   HT         8.318000   -4.183000    0.734000      0.00       1.0080
  1361   17   OT        17.508000   17.879000    7.819000      0.00      15.9994
  1362   18   HT        16.514000   17.713000    7.768000      0.00       1.0080
  1363   18   HT        17.629000   18.762000    8.419000      0.00       1.0080
  1364   17   OT        -0.279000    3.232000   12.077000      0.00      15.9994
  1365   18   HT         0.045000    3.119000   11.088000      0.00       1.0080
  1366   18   HT        -1.286000    3.306000   12.134000      0.00       1.0080
  1367   17   OT         3.699000    8.105000   17.556000      0.00      15.9994
  1368   18   HT         2.849000    7.532000   17.603000      0.00       1.0080
  1369   18   HT         3.388000    9.078000   17.565000      0.00       1.0080
  1370   17   OT         5.426000   10.096000    0.668000      0.00      15.9994
  1371   18   HT         5.127000   10.378000    1.636000      0.00       1.0080
  1372   18   HT         4.647000    9.565000    0.321000      0.00       1.0080
  1373   17   OT        -1.239000    5.186000    3.316000      0.00      15.9994
  1374   18   HT        -1.161000    5.962000    2.658000      0.00       1.0080
  1375   18   HT        -0.743000    4.385000    2.976000      0.00       1.0080
  1376   17   OT         8.506000    4.578000   -0.995000      0.00      15.9994
  1377   18   HT         9.369000    4.972000   -0.558000      0.00       1.0080
  1378   18   HT         7.756000    5.195000   -0.667000      0.00       1.0080
  1379   17   OT        16.421000   17.716000    2.614000      0.00      15.9994
  1380   18   HT        17.064000   17.048000    2.151000      0.00       1.0080
  1381   18   HT        17.054000   18.451000    2.991000      0.00       1.0080
  1382   17   OT         1.488000   -2.810000    2.919000      0.00      15.9994
  1383   18   HT         0.960000   -2.694000    3.804000      0.00       1.0080
  1384   18   HT         1.202000   -3.788000    2.596000      0.00       1.0080
  1385   17   OT        -1.724000    5.967000   -3.561000      0.00      15.9994
  1386   18   HT        -2.360000    6.368000   -2.836000      0.00       1.0080
  1387   18   HT        -1.484000    6.832000   -4.114000      0.00       1.0080
  1388   17   OT         2.413000    8.962000    5.588000      0.00      15.9994
  1389   18   HT         2.377000    9.238000    6.542000      0.00       1.0080
  1390   18   HT         3.308000    8.553000    5.368000      0.00       1.0080
  1391   17   OT        20.369000   -0.716000    5.706000      0.00      15.9994
  1392   18   HT        19.438000   -1.166000    5.816000      0.00       1.0080
  1393   18   HT        20.391000   -0.218000    4.804000      0.00       1.0080
  1394   17   OT        18.720000   -0.356000    9.711000      0.00      15.9994
  1395   18   HT        18.325000   -0.049000   10.652000      0.00       1.0080
  1396   18   HT        18.144000   -0.181000    8.902000      0.00       1.0080
  1397   17   OT        -0.366000   14.208000   12.154000      0.00      15.9994
  1398   18   HT         0.661000   14.421000   12.165000      0.00       1.0080
  1399   18   HT        -0.940000   15.073000   12.043000      0.00       1.0080
  1400   17   OT        14.693000   16.929000    4.643000      0.00      15.9994
  1401   18   HT        15.319000   17.404000    4.007000      0.00       1.0080
  1402   18   HT        14.355000   16.009000    4.332000      0.00       1.0080
  1403   17   OT        -0.183000    5.858000   -0.255000      0.00      15.9994
  1404   18   HT        -0.522000    6.404000    0.538000      0.00       1.0080
  1405   18   HT         0.688000    6.384000   -0.393000      0.00       1.0080
  1406   17   OT        14.813000   10.874000   19.066000      0.00      15.9994
  1407   18   HT        14.785000   10.511000   18.133000      0.00       1.0080
  1408   18   HT        13.876000   10.529000   19.382000      0.00       1.0080
  1409   17   OT        19.938000   12.903000    0.614000      0.00      15.9994
  1410   18   HT        18.981000   13.202000    0.332000      0.00       1.0080
  1411   18   HT        20.162000   13.263000    1.548000      0.00       1.0080
  1412   17   OT        17.373000   16.694000   11.741000      0.00      15.9994
  1413   18   HT        18.230000   17.289000   11.728000      0.00       1.0080
  1414   18   HT        16.525000   17.286000   11.801000      0.00       1.0080
  1415   17   OT        -0.617000    0.765000   -2.895000      0.00      15.9994
  1416   18   HT        -1.239000    1.167000   -2.242000      0.00       1.0080
  1417   18   HT        -0.429000    1.348000   -3.686000      0.00       1.0080
  1418   17   OT         4.265000    3.848000   15.480000      0.00      15.9994
  1419   18   HT         4.506000    4.836000   15.469000      0.00       1.0080
  1420   18   HT         4.606000    3.592000   16.426000      0.00       1.0080
  1421   17   OT        17.466000    1.349000    7.381000      0.00      15.9994
  1422   18   HT        18.007000    1.914000    8.003000      0.00       1.0080
  1423   18   HT        17.751000    1.551000    6.405000      0.00       1.0080
  1424   17   OT         7.863000    8.977000   19.367000      0.00      15.9994
  1425   18   HT         8.575000    8.360000   19.773000      0.00       1.0080
  1426   18   HT         8.248000    9.780000   18.797000      0.00       1.0080
  1427   17   OT         2.651000   15.678000    9.672000      0.00      15.9994
  1428   18   HT         3.508000   16.124000   10.008000      0.00       1.0080
  1429   18   HT         2.284000   16.272000    8.933000      0.00       1.0080


 QMMM| Information on the QM/MM Electrostatic Potential:
 QMMM| QM/MM Coupling computed collocating the Gaussian Potential Functions.
 MM DIPOLE [BERRY PHASE](A.U.)|                  -8.521263   5.782505  -9.989343
 MM DIPOLE [BERRY PHASE](Debye)|                -21.658889  14.697661 -25.390375
 MM DIPOLE [BERRY PHASE] DERIVATIVE(A.U.)|        0.000000   0.000000   0.000000

 ENERGY| Total FORCE_EVAL ( FIST ) energy (a.u.):             -6.556241026066026

...

  **** **** ******  **  PROGRAM ENDED AT                 2016-12-23 22:06:50.153
 ***** ** ***  *** **   PROGRAM RAN ON                                 midway532
 **    ****   ******    PROGRAM RAN BY
 ***** **    ** ** **   PROGRAM PROCESS ID                                  2416
  **** **  *******  **  PROGRAM STOPPED IN /project/gavoth/hmayes/asp_glu_in_wat
                                           er/glu_3.2_cp2k/cp2k_files
