 DBCSR| Multiplication driver                                                SMM
 DBCSR| Multiplication stack size                                           1000
 DBCSR| Multiplication size stacks                                             0
 DBCSR| Use subcommunicators                                                   T
 DBCSR| Use MPI combined types                                                 F
 DBCSR| Use MPI memory allocation                                              T
 DBCSR| Use Communication thread                                               T
 DBCSR| Communication thread load                                            100


  **** **** ******  **  PROGRAM STARTED AT               2017-01-01 08:02:40.184
 ***** ** ***  *** **   PROGRAM STARTED ON                             midway762
 **    ****   ******    PROGRAM STARTED BY                                      
 ***** **    ** ** **   PROGRAM PROCESS ID                                 32074
  **** **  *******  **  PROGRAM STARTED IN /project/gavoth/hmayes/asp_glu_in_wat
                                           er/glu_3.2_cp2k/cp2k_intermed

 CP2K| version string:                                        CP2K version 2.4.0
 CP2K| source code revision number:                                        12993
 CP2K| is freely available from                             http://www.cp2k.org/
 CP2K| Program compiled at                          Tue Aug 20 13:25:30 CDT 2013
 CP2K| Program compiled on                                         midway-login1
 CP2K| Program compiled for                                  Linux-x86-64-midway
 CP2K| Input file name                                    glu_2.5_1.05-1.restart
 
 GLOBAL| Force Environment number                                              1
 GLOBAL| Basis set file name                  ../input/cp2k_files/GTH_BASIS_SETS
 GLOBAL| Geminal file name                                         BASIS_GEMINAL
 GLOBAL| Potential file name                  ../input/cp2k_files/GTH_POTENTIALS
 GLOBAL| MM Potential file name                                     MM_POTENTIAL
 GLOBAL| Coordinate file name                                   glu_2.5_1.05.pdb
 GLOBAL| Method name                                                        CP2K
 GLOBAL| Project name                                               glu_2.5_1.05
 GLOBAL| Preferred FFT library                                             FFTW3
 GLOBAL| Run type                                                        GEO_OPT
 GLOBAL| All-to-all communication in single precision                          F
 GLOBAL| FFTs using library dependent lengths                                  F
 GLOBAL| Global print level                                               MEDIUM
 GLOBAL| Total number of message passing processes                            20
 GLOBAL| Number of threads for this process                                    1
 GLOBAL| This output is from process                                           0

 MEMORY| system memory details [Kb]
 MEMORY|                        rank 0           min           max       average
 MEMORY| MemTotal             66075964      66075964      66075964      66075964
 MEMORY| MemFree              59994696      59994696      59994696      59994696
 MEMORY| Buffers                     0             0             0             0
 MEMORY| Cached                1261520       1261520       1261520       1261520
 MEMORY| Slab                   329776        329776        329776        329776
 MEMORY| SReclaimable            35076         35076         35076         35076
 MEMORY| MemLikelyFree        61291292      61291292      61291292      61291292


 *** Fundamental physical constants (SI units) ***

 *** Literature: B. J. Mohr and B. N. Taylor,
 ***             CODATA recommended values of the fundamental physical
 ***             constants: 2006, Web Version 5.1
 ***             http://physics.nist.gov/constants

 Speed of light in vacuum [m/s]                             2.99792458000000E+08
 Magnetic constant or permeability of vacuum [N/A**2]       1.25663706143592E-06
 Electric constant or permittivity of vacuum [F/m]          8.85418781762039E-12
 Planck constant (h) [J*s]                                  6.62606896000000E-34
 Planck constant (h-bar) [J*s]                              1.05457162825177E-34
 Elementary charge [C]                                      1.60217648700000E-19
 Electron mass [kg]                                         9.10938215000000E-31
 Electron g factor [ ]                                     -2.00231930436220E+00
 Proton mass [kg]                                           1.67262163700000E-27
 Fine-structure constant                                    7.29735253760000E-03
 Rydberg constant [1/m]                                     1.09737315685270E+07
 Avogadro constant [1/mol]                                  6.02214179000000E+23
 Boltzmann constant [J/K]                                   1.38065040000000E-23
 Atomic mass unit [kg]                                      1.66053878200000E-27
 Bohr radius [m]                                            5.29177208590000E-11

 *** Conversion factors ***

 [u] -> [a.u.]                                              1.82288848426455E+03
 [Angstrom] -> [Bohr] = [a.u.]                              1.88972613288564E+00
 [a.u.] = [Bohr] -> [Angstrom]                              5.29177208590000E-01
 [a.u.] -> [s]                                              2.41888432650478E-17
 [a.u.] -> [fs]                                             2.41888432650478E-02
 [a.u.] -> [J]                                              4.35974393937059E-18
 [a.u.] -> [K]                                              3.15774647902944E+05
 [a.u.] -> [kJ/mol]                                         2.62549961709828E+03
 [a.u.] -> [kcal/mol]                                       6.27509468713739E+02
 [a.u.] -> [Pa]                                             2.94210107994716E+13
 [a.u.] -> [bar]                                            2.94210107994716E+08
 [a.u.] -> [atm]                                            2.90362800883016E+08
 [a.u.] -> [eV]                                             2.72113838565563E+01
 [a.u.] -> [Hz]                                             6.57968392072181E+15
 [a.u.] -> [1/cm] (wave numbers)                            2.19474631370540E+05
 [a.u./Bohr**2] -> [1/cm]                                   5.14048714338585E+03
 


                      ************* ******** ***********   
                     ************* **********************  
                     ****     **** ****      ***********   
                     ******** ****  *******     ****       
                     *******  ****   *******   ****        
                     ****     ****       ****  ****        
                     ****     **** **********  ****        
                      ****     **** ********    ****       
                     FRONTIERS IN SIMULATION TECHNOLOGY    
                                                           
                        C.J. Mundy, S. Balasubramanian,    
                     Ken Bagchi, J. Hutter, Ari Seitsonen  
                      IFW Kuo, T. Laino, J. VandeVondele   
                                 Version 1.0               

                                                           


 CELL| Volume [angstrom^3]:                                            14259.422
 CELL| Vector a [angstrom]:      24.249     0.000     0.000    |a| =      24.249
 CELL| Vector b [angstrom]:       0.000    24.249     0.000    |b| =      24.249
 CELL| Vector c [angstrom]:       0.000     0.000    24.249    |c| =      24.249
 CELL| Angle (b,c), alpha [degree]:                                       90.000
 CELL| Angle (a,c), beta  [degree]:                                       90.000
 CELL| Angle (a,b), gamma [degree]:                                       90.000
 CELL| Orthorhombic:                                                         YES

 CELL_REF| Volume [angstrom^3]:                                        14259.422
 CELL_REF| Vector a [angstrom    24.249     0.000     0.000    |a| =      24.249
 CELL_REF| Vector b [angstrom     0.000    24.249     0.000    |b| =      24.249
 CELL_REF| Vector c [angstrom     0.000     0.000    24.249    |c| =      24.249
 CELL_REF| Angle (b,c), alpha [degree]:                                   90.000
 CELL_REF| Angle (a,c), beta  [degree]:                                   90.000
 CELL_REF| Angle (a,b), gamma [degree]:                                   90.000
 CELL_REF| Orthorhombic:                                                     YES

 EWALD| Summation is done by:                                               SPME
 EWALD| Alpha parameter [       ANGSTROM^-1]                              0.3500
 EWALD| Real Space Cutoff [          ANGSTROM]                            9.6398
 EWALD| G-space max. Miller index                         24        24        24
 EWALD| Spline interpolation order                                             6

 CELL_TOP| Volume [angstrom^3]:                                        14259.422
 CELL_TOP| Vector a [angstrom    24.249     0.000     0.000    |a| =      24.249
 CELL_TOP| Vector b [angstrom     0.000    24.249     0.000    |b| =      24.249
 CELL_TOP| Vector c [angstrom     0.000     0.000    24.249    |c| =      24.249
 CELL_TOP| Angle (b,c), alpha [degree]:                                   90.000
 CELL_TOP| Angle (a,c), beta  [degree]:                                   90.000
 CELL_TOP| Angle (a,b), gamma [degree]:                                   90.000
 CELL_TOP| Orthorhombic:                                                     YES

 *** 08:02:43 WARNING in atoms_input:read_atoms_input :: Overwriting  ***
 *** coordinates. Active coordinates read from &COORD section. Active ***
 *** coordinates READ from &COORD section atoms_input.F line 129      ***

 
 FORCEFIELD| WARNING: A non Critical ForceField parameter is missing! CP2K GOES!
 FORCEFIELD| Non critical parameters are:Urey-Bradley,Torsions,Impropers, Opbends and 1-4
 FORCEFIELD| All missing parameters will not contribute to the potential energy!
 FORCEFIELD| Activate the print key FF_INFO to have a list of missing parameters
 
 CHARGE_INFO| Total Charge of the Classical System:                     0.000000

 SPLINE_INFO| Generating 210 splines for the NONBONDED14 interactions due to 20 different atomic kinds
 ...21
 ...42
 ...63
 ...84
 ...105
 ...126
 ...147
 ...168
 ...189
 ...210

 SPLINE_INFO| Number of unique splines computed:            96

 SPLINE_INFO| Done

 SPLINE_INFO| Generating 210 splines for the NONBONDED interactions due to 20 different atomic kinds
 ...21
 ...42
 ...63
 ...84
 ...105
 ...126
 ...147
 ...168
 ...189
 ...210

 SPLINE_INFO| Number of unique splines computed:            96

 SPLINE_INFO| Done


 MOLECULE KIND INFORMATION

     1. Molecule kind: _QM_P1                    Number of atoms:             27
                     Atom         Atomic kind name
                        1                        C
                        2                        O
                        3                      NH1
                        4                        H
                        5                      CT3
                        6                      HA3
                        7                      HA3
                        8                      HA3
                        9                      CT3
                       10                      HA3
                       11                      HA3
                       12                      HA3
                       13                        C
                       14                        O
                       15                      NH1
                       16                        H
                       17             _LNK1_QM_CT1
                       18                      HB1
                       19                 _QM_CT2A
                       20                  _QM_HA2
                       21                  _QM_HA2
                       22                  _QM_CT2
                       23                  _QM_HA2
                       24                  _QM_HA2
                       25                   _QM_CC
                       26                   _QM_OC
                       27                   _QM_OC

        The name was automatically generated: F
        Number of molecules:      1
        Molecule list:                1
        Number of bonds:           17
        Number of bends:           30
        Number of torsions:        41
        Number of improper:         4

     2. Molecule kind: _QM_O1                    Number of atoms:              4
                     Atom         Atomic kind name
                        1                  _QM_OTH
                        2                  _QM_HTH
                        3                  _QM_HTH
                        4                  _QM_HTH

        The name was automatically generated: F
        Number of molecules:      1
        Molecule list:                2

     3. Molecule kind: W1                        Number of atoms:              3
                     Atom         Atomic kind name
                        1                       OT
                        2                       HT
                        3                       HT

        The name was automatically generated: F
        Number of molecules:      7
        Molecule list:                3         4         5         6         7
                                      8         9
        Number of bonds:            2
        Number of bends:            1

     4. Molecule kind: _QM_W1                    Number of atoms:              3
                     Atom         Atomic kind name
                        1                   _QM_OT
                        2                   _QM_HT
                        3                   _QM_HT

        The name was automatically generated: F
        Number of molecules:      1
        Molecule list:               10

     5. Molecule kind: W1                        Number of atoms:              3
                     Atom         Atomic kind name
                        1                       OT
                        2                       HT
                        3                       HT

        The name was automatically generated: F
        Number of molecules:      9
        Molecule list:               11        12        13        14        15
                                     16        17        18        19
        Number of bonds:            2
        Number of bends:            1

     6. Molecule kind: _QM_W1                    Number of atoms:              3
                     Atom         Atomic kind name
                        1                   _QM_OT
                        2                   _QM_HT
                        3                   _QM_HT

        The name was automatically generated: F
        Number of molecules:      1
        Molecule list:               20

     7. Molecule kind: W1                        Number of atoms:              3
                     Atom         Atomic kind name
                        1                       OT
                        2                       HT
                        3                       HT

        The name was automatically generated: F
        Number of molecules:      9
        Molecule list:               21        22        23        24        25
                                     26        27        28        29
        Number of bonds:            2
        Number of bends:            1

     8. Molecule kind: _QM_W1                    Number of atoms:              3
                     Atom         Atomic kind name
                        1                   _QM_OT
                        2                   _QM_HT
                        3                   _QM_HT

        The name was automatically generated: F
        Number of molecules:      1
        Molecule list:               30

     9. Molecule kind: W1                        Number of atoms:              3
                     Atom         Atomic kind name
                        1                       OT
                        2                       HT
                        3                       HT

        The name was automatically generated: F
        Number of molecules:    103
        Molecule list:               31        32        33        34        35
                                     36        37        38        39        40
                                     41        42        43        44        45
                                     46        47        48        49        50
                                     51        52        53        54        55
                                     56        57        58        59        60
                                     61        62        63        64        65
                                     66        67        68        69        70
                                     71        72        73        74        75
                                     76        77        78        79        80
                                     81        82        83        84        85
                                     86        87        88        89        90
                                     91        92        93        94        95
                                     96        97        98        99       100
                                    101       102       103       104       105
                                    106       107       108       109       110
                                    111       112       113       114       115
                                    116       117       118       119       120
                                    121       122       123       124       125
                                    126       127       128       129       130
                                    131       132       133
        Number of bonds:            2
        Number of bends:            1

    10. Molecule kind: _QM_W1                    Number of atoms:              3
                     Atom         Atomic kind name
                        1                   _QM_OT
                        2                   _QM_HT
                        3                   _QM_HT

        The name was automatically generated: F
        Number of molecules:      1
        Molecule list:              134

    11. Molecule kind: W1                        Number of atoms:              3
                     Atom         Atomic kind name
                        1                       OT
                        2                       HT
                        3                       HT

        The name was automatically generated: F
        Number of molecules:     25
        Molecule list:              135       136       137       138       139
                                    140       141       142       143       144
                                    145       146       147       148       149
                                    150       151       152       153       154
                                    155       156       157       158       159
        Number of bonds:            2
        Number of bends:            1

    12. Molecule kind: _QM_W1                    Number of atoms:              3
                     Atom         Atomic kind name
                        1                   _QM_OT
                        2                   _QM_HT
                        3                   _QM_HT

        The name was automatically generated: F
        Number of molecules:      1
        Molecule list:              160

    13. Molecule kind: W1                        Number of atoms:              3
                     Atom         Atomic kind name
                        1                       OT
                        2                       HT
                        3                       HT

        The name was automatically generated: F
        Number of molecules:     80
        Molecule list:              161       162       163       164       165
                                    166       167       168       169       170
                                    171       172       173       174       175
                                    176       177       178       179       180
                                    181       182       183       184       185
                                    186       187       188       189       190
                                    191       192       193       194       195
                                    196       197       198       199       200
                                    201       202       203       204       205
                                    206       207       208       209       210
                                    211       212       213       214       215
                                    216       217       218       219       220
                                    221       222       223       224       225
                                    226       227       228       229       230
                                    231       232       233       234       235
                                    236       237       238       239       240
        Number of bonds:            2
        Number of bends:            1

    14. Molecule kind: _QM_W1                    Number of atoms:              3
                     Atom         Atomic kind name
                        1                   _QM_OT
                        2                   _QM_HT
                        3                   _QM_HT

        The name was automatically generated: F
        Number of molecules:      1
        Molecule list:              241

    15. Molecule kind: W1                        Number of atoms:              3
                     Atom         Atomic kind name
                        1                       OT
                        2                       HT
                        3                       HT

        The name was automatically generated: F
        Number of molecules:     74
        Molecule list:              242       243       244       245       246
                                    247       248       249       250       251
                                    252       253       254       255       256
                                    257       258       259       260       261
                                    262       263       264       265       266
                                    267       268       269       270       271
                                    272       273       274       275       276
                                    277       278       279       280       281
                                    282       283       284       285       286
                                    287       288       289       290       291
                                    292       293       294       295       296
                                    297       298       299       300       301
                                    302       303       304       305       306
                                    307       308       309       310       311
                                    312       313       314       315
        Number of bonds:            2
        Number of bends:            1

    16. Molecule kind: _QM_W1                    Number of atoms:              3
                     Atom         Atomic kind name
                        1                   _QM_OT
                        2                   _QM_HT
                        3                   _QM_HT

        The name was automatically generated: F
        Number of molecules:      1
        Molecule list:              316

    17. Molecule kind: W1                        Number of atoms:              3
                     Atom         Atomic kind name
                        1                       OT
                        2                       HT
                        3                       HT

        The name was automatically generated: F
        Number of molecules:     17
        Molecule list:              317       318       319       320       321
                                    322       323       324       325       326
                                    327       328       329       330       331
                                    332       333
        Number of bonds:            2
        Number of bends:            1

    18. Molecule kind: _QM_W1                    Number of atoms:              3
                     Atom         Atomic kind name
                        1                   _QM_OT
                        2                   _QM_HT
                        3                   _QM_HT

        The name was automatically generated: F
        Number of molecules:      1
        Molecule list:              334

    19. Molecule kind: W1                        Number of atoms:              3
                     Atom         Atomic kind name
                        1                       OT
                        2                       HT
                        3                       HT

        The name was automatically generated: F
        Number of molecules:     47
        Molecule list:              335       336       337       338       339
                                    340       341       342       343       344
                                    345       346       347       348       349
                                    350       351       352       353       354
                                    355       356       357       358       359
                                    360       361       362       363       364
                                    365       366       367       368       369
                                    370       371       372       373       374
                                    375       376       377       378       379
                                    380       381
        Number of bonds:            2
        Number of bends:            1

    20. Molecule kind: _QM_W1                    Number of atoms:              3
                     Atom         Atomic kind name
                        1                   _QM_OT
                        2                   _QM_HT
                        3                   _QM_HT

        The name was automatically generated: F
        Number of molecules:      1
        Molecule list:              382

    21. Molecule kind: W1                        Number of atoms:              3
                     Atom         Atomic kind name
                        1                       OT
                        2                       HT
                        3                       HT

        The name was automatically generated: F
        Number of molecules:     11
        Molecule list:              383       384       385       386       387
                                    388       389       390       391       392
                                    393
        Number of bonds:            2
        Number of bends:            1

    22. Molecule kind: _QM_W1                    Number of atoms:              3
                     Atom         Atomic kind name
                        1                   _QM_OT
                        2                   _QM_HT
                        3                   _QM_HT

        The name was automatically generated: F
        Number of molecules:      1
        Molecule list:              394

    23. Molecule kind: W1                        Number of atoms:              3
                     Atom         Atomic kind name
                        1                       OT
                        2                       HT
                        3                       HT

        The name was automatically generated: F
        Number of molecules:     17
        Molecule list:              395       396       397       398       399
                                    400       401       402       403       404
                                    405       406       407       408       409
                                    410       411
        Number of bonds:            2
        Number of bends:            1

    24. Molecule kind: _QM_W1                    Number of atoms:              3
                     Atom         Atomic kind name
                        1                   _QM_OT
                        2                   _QM_HT
                        3                   _QM_HT

        The name was automatically generated: F
        Number of molecules:      1
        Molecule list:              412

    25. Molecule kind: W1                        Number of atoms:              3
                     Atom         Atomic kind name
                        1                       OT
                        2                       HT
                        3                       HT

        The name was automatically generated: F
        Number of molecules:     14
        Molecule list:              413       414       415       416       417
                                    418       419       420       421       422
                                    423       424       425       426
        Number of bonds:            2
        Number of bends:            1

    26. Molecule kind: _QM_W1                    Number of atoms:              3
                     Atom         Atomic kind name
                        1                   _QM_OT
                        2                   _QM_HT
                        3                   _QM_HT

        The name was automatically generated: F
        Number of molecules:      1
        Molecule list:              427

    27. Molecule kind: W1                        Number of atoms:              3
                     Atom         Atomic kind name
                        1                       OT
                        2                       HT
                        3                       HT

        The name was automatically generated: F
        Number of molecules:     41
        Molecule list:              428       429       430       431       432
                                    433       434       435       436       437
                                    438       439       440       441       442
                                    443       444       445       446       447
                                    448       449       450       451       452
                                    453       454       455       456       457
                                    458       459       460       461       462
                                    463       464       465       466       467
                                    468
        Number of bonds:            2
        Number of bends:            1


 MOLECULE KIND SET INFORMATION               Total Number of bonds:          925
                                             Total Number of bends:          484
                                             Total Number of Urey-Bradley:     0
                                             Total Number of torsions:        41
                                             Total Number of improper:         4
                                              Total Number of opbends:         0


 MODULE FIST:  ATOMIC COORDINATES IN angstrom

  Atom  Kind  ATM_TYP       X           Y           Z          q(eff)       Mass

     1    1   C          9.700000   15.535000    8.343500      0.51      12.0110
     2    2   O          8.684000   16.232000    8.633500     -0.51      15.9990
     3    3   NH1       10.714000   16.046000    7.704500     -0.47      14.0070
     4    4   H         11.332000   15.435000    7.177500      0.31       1.0080
     5    5   CT3       10.915000   17.456000    7.345500     -0.11      12.0110
     6    6   HA3       11.989000   17.685000    7.010500      0.09       1.0080
     7    6   HA3       10.251000   17.730000    6.523500      0.09       1.0080
     8    6   HA3       10.700000   18.139000    8.154500      0.09       1.0080
     9    7   CT3        7.301000   13.803000   11.439500     -0.27      12.0110
    10    6   HA3        6.439000   13.967000   10.734500      0.09       1.0080
    11    6   HA3        7.178000   14.394000   12.292500      0.09       1.0080
    12    6   HA3        7.226000   12.632000   11.667500      0.09       1.0080
    13    1   C          8.570000   14.078000   10.674500      0.51      12.0110
    14    2   O          9.565000   14.511000   11.251500     -0.51      15.9990
    15    3   NH1        8.533000   13.802000    9.424500     -0.47      14.0070
    16    4   H          7.739000   13.360000    8.982500      0.31       1.0080
    17    8   _LNK       9.634000   14.067000    8.510500      0.07      12.0110
    18    9   HB1       10.460000   13.706000    9.048500      0.09       1.0080
    19   10   _QM_       9.594000   13.306000    7.146500      0.00      12.0110
    20   11   _QM_       8.925000   13.847000    6.388500      0.00       1.0080
    21   11   _QM_      10.634000   13.310000    6.725500      0.00       1.0080
    22   12   _QM_       9.216000   11.808000    7.311500      0.00      12.0110
    23   11   _QM_       8.166000   11.738000    7.419500      0.00       1.0080
    24   11   _QM_       9.425000   11.301000    6.297500      0.00       1.0080
    25   13   _QM_      10.098000   11.126000    8.344500      0.00      12.0110
    26   14   _QM_      11.350000   11.075000    8.311500      0.00      15.9990
    27   14   _QM_       9.450000   10.643000    9.376500      0.00      15.9990
    28   15   _QM_      10.755000   10.479000   11.501500      0.00      15.9994
    29   16   _QM_      10.081000   10.656000   10.215500      0.00       1.0080
    30   16   _QM_      10.255447   10.045346   12.203366      0.00       1.0080
    31   16   _QM_      11.137490   11.322000   11.851592      0.00       1.0080
    32   17   OT        17.059000    3.901000    5.156500     -0.82      15.9994
    33   18   HT        18.032000    4.169000    4.994500      0.41       1.0080
    34   18   HT        16.637000    4.547000    5.860500      0.41       1.0080
    35   17   OT        20.902000   23.153000    5.858500     -0.82      15.9994
    36   18   HT        21.306000   23.367000    4.919500      0.41       1.0080
    37   18   HT        19.822000   23.172000    5.909500      0.41       1.0080
    38   17   OT         8.716000   12.176000   15.757500     -0.82      15.9994
    39   18   HT         9.438000   12.894000   15.642500      0.41       1.0080
    40   18   HT         9.149000   11.507000   16.371500      0.41       1.0080
    41   17   OT        21.762000   18.228000   16.546500     -0.82      15.9994
    42   18   HT        21.232000   18.437000   15.681500      0.41       1.0080
    43   18   HT        22.186000   18.976000   17.121500      0.41       1.0080
    44   17   OT         0.830000   16.853000    1.013500     -0.82      15.9994
    45   18   HT         1.474000   16.166000    1.487500      0.41       1.0080
    46   18   HT         0.333000   17.411000    1.753500      0.41       1.0080
    47   17   OT         5.726000    2.587000   -3.708500     -0.82      15.9994
    48   18   HT         5.455000    2.573000   -2.724500      0.41       1.0080
    49   18   HT         5.197000    1.753000   -4.056500      0.41       1.0080
    50   17   OT         7.676000   15.875000    5.082500     -0.82      15.9994
    51   18   HT         7.628000   16.779000    5.629500      0.41       1.0080
    52   18   HT         8.602000   15.948000    4.629500      0.41       1.0080
    53   19   _QM_      10.521000    6.470000    8.075500      0.00      15.9994
    54   20   _QM_      10.569000    5.560000    7.595500      0.00       1.0080
    55   20   _QM_      11.085000    7.108000    7.493500      0.00       1.0080
    56   17   OT         3.744000   21.995000   11.851500     -0.82      15.9994
    57   18   HT         4.542000   21.724000   11.232500      0.41       1.0080
    58   18   HT         3.683000   21.416000   12.686500      0.41       1.0080
    59   17   OT         1.796000   21.984000    8.068500     -0.82      15.9994
    60   18   HT         2.126000   22.083000    7.097500      0.41       1.0080
    61   18   HT         0.849000   22.394000    8.135500      0.41       1.0080
    62   17   OT         0.733000   15.849000   11.974500     -0.82      15.9994
    63   18   HT         1.522000   15.788000   12.651500      0.41       1.0080
    64   18   HT         0.006000   16.294000   12.599500      0.41       1.0080
    65   17   OT        21.988000   16.639000    0.295500     -0.82      15.9994
    66   18   HT        22.995000   16.616000    0.228500      0.41       1.0080
    67   18   HT        21.762000   17.519000    0.731500      0.41       1.0080
    68   17   OT         3.760000    2.438000   -0.760500     -0.82      15.9994
    69   18   HT         3.518000    2.995000    0.065500      0.41       1.0080
    70   18   HT         4.404000    1.639000   -0.562500      0.41       1.0080
    71   17   OT        12.903000   14.517000    6.440500     -0.82      15.9994
    72   18   HT        12.636000   13.690000    6.010500      0.41       1.0080
    73   18   HT        13.278000   14.372000    7.382500      0.41       1.0080
    74   17   OT        18.273000   15.379000   -1.069500     -0.82      15.9994
    75   18   HT        19.195000   15.575000   -1.563500      0.41       1.0080
    76   18   HT        18.355000   14.428000   -0.667500      0.41       1.0080
    77   17   OT         9.459000   21.173000   16.683500     -0.82      15.9994
    78   18   HT         9.368000   21.899000   15.943500      0.41       1.0080
    79   18   HT         8.723000   20.456000   16.595500      0.41       1.0080
    80   17   OT        11.761000    1.229000    3.450500     -0.82      15.9994
    81   18   HT        11.781000    2.156000    3.001500      0.41       1.0080
    82   18   HT        12.078000    0.496000    2.829500      0.41       1.0080
    83   19   _QM_      16.148000   12.097000   10.293500      0.00      15.9994
    84   20   _QM_      17.099000   11.631000   10.372500      0.00       1.0080
    85   20   _QM_      15.406000   11.438000   10.437500      0.00       1.0080
    86   17   OT         6.498000   22.204000   -0.438500     -0.82      15.9994
    87   18   HT         7.181000   22.004000    0.329500      0.41       1.0080
    88   18   HT         5.545000   22.344000   -0.085500      0.41       1.0080
    89   17   OT         8.284000   -0.879000   14.998500     -0.82      15.9994
    90   18   HT         7.784000   -0.558000   15.847500      0.41       1.0080
    91   18   HT         8.005000   -1.826000   14.615500      0.41       1.0080
    92   17   OT         7.800000   21.743000    7.568500     -0.82      15.9994
    93   18   HT         7.139000   20.985000    7.303500      0.41       1.0080
    94   18   HT         7.282000   22.618000    7.723500      0.41       1.0080
    95   17   OT        20.977000    7.584000   11.754500     -0.82      15.9994
    96   18   HT        20.098000    7.125000   12.106500      0.41       1.0080
    97   18   HT        20.988000    7.508000   10.715500      0.41       1.0080
    98   17   OT        21.186000   11.876000    6.143500     -0.82      15.9994
    99   18   HT        20.694000   11.518000    6.919500      0.41       1.0080
   100   18   HT        21.944000   11.163000    6.026500      0.41       1.0080
   101   17   OT        15.790000   14.226000    0.717500     -0.82      15.9994
   102   18   HT        16.067000   14.947000    0.086500      0.41       1.0080
   103   18   HT        16.311000   14.389000    1.584500      0.41       1.0080
   104   17   OT         2.896000    5.791000   14.696500     -0.82      15.9994
   105   18   HT         3.884000    5.969000   14.865500      0.41       1.0080
   106   18   HT         2.716000    5.475000   13.747500      0.41       1.0080
   107   17   OT         8.185000    2.948000    3.368500     -0.82      15.9994
   108   18   HT         7.449000    3.381000    2.756500      0.41       1.0080
   109   18   HT         9.171000    3.120000    3.071500      0.41       1.0080
   110   17   OT        12.411000   15.657000   14.577500     -0.82      15.9994
   111   18   HT        12.672000   16.378000   15.228500      0.41       1.0080
   112   18   HT        12.206000   16.020000   13.607500      0.41       1.0080
   113   19   _QM_       8.273000    8.009000    7.986500      0.00      15.9994
   114   20   _QM_       7.792000    7.132000    7.808500      0.00       1.0080
   115   20   _QM_       9.312000    7.849000    8.074500      0.00       1.0080
   116   17   OT         2.744000   10.922000   -0.469500     -0.82      15.9994
   117   18   HT         2.401000   10.287000   -1.173500      0.41       1.0080
   118   18   HT         2.438000   11.898000   -0.670500      0.41       1.0080
   119   17   OT         7.883000    7.251000   11.526500     -0.82      15.9994
   120   18   HT         8.454000    7.352000   10.703500      0.41       1.0080
   121   18   HT         6.976000    6.896000   11.155500      0.41       1.0080
   122   17   OT        18.575000   12.029000   20.057500     -0.82      15.9994
   123   18   HT        18.788000   12.899000   19.635500      0.41       1.0080
   124   18   HT        19.367000   11.828000   20.647500      0.41       1.0080
   125   17   OT         4.886000    0.007000   20.092500     -0.82      15.9994
   126   18   HT         5.798000   -0.343000   19.845500      0.41       1.0080
   127   18   HT         4.204000   -0.259000   19.403500      0.41       1.0080
   128   17   OT        18.677000    7.684000   14.218500     -0.82      15.9994
   129   18   HT        18.823000    6.747000   13.731500      0.41       1.0080
   130   18   HT        19.520000    7.861000   14.757500      0.41       1.0080
   131   17   OT        19.470000    7.617000   -1.065500     -0.82      15.9994
   132   18   HT        18.605000    8.173000   -0.982500      0.41       1.0080
   133   18   HT        19.146000    6.739000   -0.703500      0.41       1.0080
   134   17   OT        10.486000   10.399000   -0.921500     -0.82      15.9994
   135   18   HT         9.938000   11.073000   -0.491500      0.41       1.0080
   136   18   HT        11.364000   10.256000   -0.419500      0.41       1.0080
   137   17   OT        20.716000    9.629000   18.897500     -0.82      15.9994
   138   18   HT        21.012000   10.393000   18.272500      0.41       1.0080
   139   18   HT        19.686000    9.430000   18.751500      0.41       1.0080
   140   17   OT        13.284000   19.514000   10.163500     -0.82      15.9994
   141   18   HT        13.450000   20.342000    9.561500      0.41       1.0080
   142   18   HT        12.799000   19.759000   11.027500      0.41       1.0080
   143   17   OT        13.193000   13.723000    0.362500     -0.82      15.9994
   144   18   HT        14.197000   13.709000    0.729500      0.41       1.0080
   145   18   HT        13.152000   14.513000   -0.326500      0.41       1.0080
   146   17   OT         8.838000    3.373000    6.121500     -0.82      15.9994
   147   18   HT         9.839000    3.479000    6.361500      0.41       1.0080
   148   18   HT         8.870000    3.231000    5.106500      0.41       1.0080
   149   17   OT         2.396000   17.467000    8.394500     -0.82      15.9994
   150   18   HT         3.317000   17.162000    8.719500      0.41       1.0080
   151   18   HT         2.212000   17.346000    7.393500      0.41       1.0080
   152   17   OT        20.758000   15.083000   -1.637500     -0.82      15.9994
   153   18   HT        21.393000   15.580000   -0.990500      0.41       1.0080
   154   18   HT        21.203000   14.583000   -2.457500      0.41       1.0080
   155   17   OT        13.961000    3.333000   -2.671500     -0.82      15.9994
   156   18   HT        13.656000    2.642000   -1.958500      0.41       1.0080
   157   18   HT        14.957000    3.406000   -2.740500      0.41       1.0080
   158   17   OT        20.495000   18.568000   14.238500     -0.82      15.9994
   159   18   HT        19.681000   17.908000   14.174500      0.41       1.0080
   160   18   HT        20.041000   19.440000   14.065500      0.41       1.0080
   161   17   OT         5.639000   -0.451000   14.222500     -0.82      15.9994
   162   18   HT         6.646000   -0.386000   14.443500      0.41       1.0080
   163   18   HT         5.431000   -0.695000   13.279500      0.41       1.0080
   164   17   OT        20.076000   21.231000   14.013500     -0.82      15.9994
   165   18   HT        20.526000   21.296000   13.061500      0.41       1.0080
   166   18   HT        19.660000   22.170000   14.103500      0.41       1.0080
   167   17   OT         6.764000    0.891000    6.369500     -0.82      15.9994
   168   18   HT         7.593000    0.546000    5.784500      0.41       1.0080
   169   18   HT         6.750000    1.926000    6.286500      0.41       1.0080
   170   17   OT         5.878000   19.146000   -0.088500     -0.82      15.9994
   171   18   HT         5.252000   18.368000   -0.175500      0.41       1.0080
   172   18   HT         6.383000   19.217000   -0.942500      0.41       1.0080
   173   17   OT         6.920000   17.962000    2.998500     -0.82      15.9994
   174   18   HT         7.955000   17.788000    3.107500      0.41       1.0080
   175   18   HT         6.795000   18.967000    3.049500      0.41       1.0080
   176   17   OT        16.169000    8.200000    5.443500     -0.82      15.9994
   177   18   HT        16.776000    9.008000    5.339500      0.41       1.0080
   178   18   HT        16.276000    7.623000    4.571500      0.41       1.0080
   179   17   OT        16.767000    8.576000   10.399500     -0.82      15.9994
   180   18   HT        17.497000    9.377000   10.417500      0.41       1.0080
   181   18   HT        16.476000    8.164000   11.308500      0.41       1.0080
   182   17   OT         6.569000   20.063000   19.987500     -0.82      15.9994
   183   18   HT         7.035000   19.301000   20.499500      0.41       1.0080
   184   18   HT         5.641000   20.190000   20.409500      0.41       1.0080
   185   17   OT         1.649000   14.077000   15.565500     -0.82      15.9994
   186   18   HT         2.253000   14.717000   15.040500      0.41       1.0080
   187   18   HT         1.754000   13.082000   15.311500      0.41       1.0080
   188   17   OT         3.369000   11.554000   -3.474500     -0.82      15.9994
   189   18   HT         4.279000   11.475000   -3.950500      0.41       1.0080
   190   18   HT         2.667000   12.176000   -3.905500      0.41       1.0080
   191   17   OT        14.889000    4.788000   19.087500     -0.82      15.9994
   192   18   HT        15.857000    4.496000   19.254500      0.41       1.0080
   193   18   HT        14.405000    3.982000   18.760500      0.41       1.0080
   194   17   OT        19.064000   16.451000   13.831500     -0.82      15.9994
   195   18   HT        19.500000   15.706000   13.229500      0.41       1.0080
   196   18   HT        18.617000   15.948000   14.609500      0.41       1.0080
   197   17   OT        -1.494000   19.546000    0.088500     -0.82      15.9994
   198   18   HT        -2.349000   19.463000    0.624500      0.41       1.0080
   199   18   HT        -0.710000   19.796000    0.760500      0.41       1.0080
   200   17   OT        20.944000   16.622000    4.621500     -0.82      15.9994
   201   18   HT        20.913000   16.456000    5.667500      0.41       1.0080
   202   18   HT        19.962000   16.767000    4.345500      0.41       1.0080
   203   17   OT        17.325000   16.074000    9.058500     -0.82      15.9994
   204   18   HT        16.573000   16.424000    8.434500      0.41       1.0080
   205   18   HT        17.340000   15.071000    8.824500      0.41       1.0080
   206   17   OT        12.146000    1.364000   -1.865500     -0.82      15.9994
   207   18   HT        12.274000    0.593000   -1.177500      0.41       1.0080
   208   18   HT        12.315000    1.021000   -2.834500      0.41       1.0080
   209   17   OT        16.491000   18.250000   13.939500     -0.82      15.9994
   210   18   HT        16.218000   19.188000   13.811500      0.41       1.0080
   211   18   HT        16.840000   17.845000   13.078500      0.41       1.0080
   212   17   OT        -0.540000   11.729000   13.511500     -0.82      15.9994
   213   18   HT        -0.665000   10.838000   13.087500      0.41       1.0080
   214   18   HT        -0.944000   12.522000   13.029500      0.41       1.0080
   215   17   OT         8.257000    2.837000   13.956500     -0.82      15.9994
   216   18   HT         8.261000    2.215000   13.154500      0.41       1.0080
   217   18   HT         8.998000    2.420000   14.539500      0.41       1.0080
   218   17   OT        13.889000   15.662000   18.519500     -0.82      15.9994
   219   18   HT        13.345000   16.437000   18.188500      0.41       1.0080
   220   18   HT        14.229000   15.170000   17.691500      0.41       1.0080
   221   17   OT         2.538000    0.313000   11.930500     -0.82      15.9994
   222   18   HT         3.079000   -0.555000   11.680500      0.41       1.0080
   223   18   HT         2.989000    0.914000   11.247500      0.41       1.0080
   224   17   OT         5.748000    3.660000   17.232500     -0.82      15.9994
   225   18   HT         4.827000    4.058000   17.374500      0.41       1.0080
   226   18   HT         5.441000    2.742000   16.874500      0.41       1.0080
   227   17   OT         1.665000   21.898000    4.832500     -0.82      15.9994
   228   18   HT         1.427000   20.962000    4.420500      0.41       1.0080
   229   18   HT         2.095000   22.502000    4.127500      0.41       1.0080
   230   17   OT         8.441000    3.320000   20.226500     -0.82      15.9994
   231   18   HT         7.463000    3.077000   20.287500      0.41       1.0080
   232   18   HT         8.671000    4.116000   20.872500      0.41       1.0080
   233   17   OT         8.768000   12.099000    4.151500     -0.82      15.9994
   234   18   HT         8.582000   12.951000    3.653500      0.41       1.0080
   235   18   HT         8.976000   11.413000    3.392500      0.41       1.0080
   236   17   OT        18.655000   17.626000    3.667500     -0.82      15.9994
   237   18   HT        18.284000   17.646000    4.629500      0.41       1.0080
   238   18   HT        17.922000   17.770000    2.920500      0.41       1.0080
   239   17   OT         4.321000   12.408000   13.052500     -0.82      15.9994
   240   18   HT         4.883000   12.055000   13.843500      0.41       1.0080
   241   18   HT         4.753000   11.860000   12.321500      0.41       1.0080
   242   17   OT        18.509000    9.367000    2.477500     -0.82      15.9994
   243   18   HT        17.555000    9.655000    2.372500      0.41       1.0080
   244   18   HT        19.212000   10.105000    2.634500      0.41       1.0080
   245   17   OT        10.975000   18.873000   15.299500     -0.82      15.9994
   246   18   HT        10.213000   18.456000   14.811500      0.41       1.0080
   247   18   HT        10.537000   19.645000   15.872500      0.41       1.0080
   248   17   OT         5.989000   -0.316000    8.549500     -0.82      15.9994
   249   18   HT         6.317000    0.148000    9.434500      0.41       1.0080
   250   18   HT         6.442000    0.228000    7.733500      0.41       1.0080
   251   17   OT        15.162000   -0.178000    9.526500     -0.82      15.9994
   252   18   HT        15.393000   -0.536000    8.575500      0.41       1.0080
   253   18   HT        15.914000    0.537000    9.629500      0.41       1.0080
   254   17   OT         7.944000   18.707000   -2.373500     -0.82      15.9994
   255   18   HT         8.408000   17.823000   -2.466500      0.41       1.0080
   256   18   HT         8.681000   19.442000   -2.212500      0.41       1.0080
   257   17   OT        21.142000   10.860000   13.753500     -0.82      15.9994
   258   18   HT        21.779000   10.111000   13.596500      0.41       1.0080
   259   18   HT        21.680000   11.698000   13.760500      0.41       1.0080
   260   17   OT        -1.008000   11.914000   19.982500     -0.82      15.9994
   261   18   HT        -1.391000   11.041000   20.281500      0.41       1.0080
   262   18   HT        -0.004000   11.970000   20.045500      0.41       1.0080
   263   17   OT         5.436000   21.659000    9.833500     -0.82      15.9994
   264   18   HT         4.840000   21.010000    9.280500      0.41       1.0080
   265   18   HT         5.583000   22.530000    9.311500      0.41       1.0080
   266   17   OT        19.308000   20.634000   17.080500     -0.82      15.9994
   267   18   HT        19.785000   20.579000   16.170500      0.41       1.0080
   268   18   HT        18.258000   20.785000   16.929500      0.41       1.0080
   269   17   OT        19.681000    5.264000   10.488500     -0.82      15.9994
   270   18   HT        18.835000    4.827000   10.039500      0.41       1.0080
   271   18   HT        20.306000    5.604000    9.773500      0.41       1.0080
   272   17   OT        -1.105000    2.034000    4.493500     -0.82      15.9994
   273   18   HT        -0.525000    1.314000    4.912500      0.41       1.0080
   274   18   HT        -0.562000    2.921000    4.582500      0.41       1.0080
   275   17   OT         5.612000    6.584000   14.030500     -0.82      15.9994
   276   18   HT         6.022000    7.049000   14.898500      0.41       1.0080
   277   18   HT         5.566000    7.372000   13.366500      0.41       1.0080
   278   17   OT        12.392000   17.622000   17.135500     -0.82      15.9994
   279   18   HT        11.864000   17.976000   16.255500      0.41       1.0080
   280   18   HT        11.710000   17.615000   17.915500      0.41       1.0080
   281   17   OT        16.631000    1.678000   -3.636500     -0.82      15.9994
   282   18   HT        16.904000    1.289000   -2.743500      0.41       1.0080
   283   18   HT        16.979000    0.972000   -4.319500      0.41       1.0080
   284   17   OT        12.691000   22.870000   18.531500     -0.82      15.9994
   285   18   HT        12.523000   21.887000   18.636500      0.41       1.0080
   286   18   HT        11.864000   23.182000   18.013500      0.41       1.0080
   287   17   OT        15.371000    1.574000    6.738500     -0.82      15.9994
   288   18   HT        15.379000    2.565000    6.411500      0.41       1.0080
   289   18   HT        15.005000    0.963000    6.012500      0.41       1.0080
   290   17   OT        -1.052000   18.200000    7.398500     -0.82      15.9994
   291   18   HT        -1.437000   19.141000    7.654500      0.41       1.0080
   292   18   HT        -0.496000   17.938000    8.238500      0.41       1.0080
   293   17   OT         6.441000   15.526000   -1.690500     -0.82      15.9994
   294   18   HT         7.175000   15.988000   -1.129500      0.41       1.0080
   295   18   HT         5.620000   16.022000   -1.355500      0.41       1.0080
   296   17   OT         7.279000    9.430000    5.784500     -0.82      15.9994
   297   18   HT         7.931000   10.187000    5.610500      0.41       1.0080
   298   18   HT         7.460000    8.908000    6.653500      0.41       1.0080
   299   17   OT         8.207000   16.125000   17.051500     -0.82      15.9994
   300   18   HT         8.717000   15.381000   16.674500      0.41       1.0080
   301   18   HT         7.434000   15.750000   17.682500      0.41       1.0080
   302   17   OT        19.614000   14.432000   15.647500     -0.82      15.9994
   303   18   HT        20.564000   14.756000   15.809500      0.41       1.0080
   304   18   HT        19.503000   13.804000   16.438500      0.41       1.0080
   305   17   OT        22.113000    4.690000   -0.332500     -0.82      15.9994
   306   18   HT        22.838000    4.841000   -1.075500      0.41       1.0080
   307   18   HT        22.451000    5.030000    0.583500      0.41       1.0080
   308   17   OT         5.412000   11.523000    3.111500     -0.82      15.9994
   309   18   HT         4.407000   11.672000    3.465500      0.41       1.0080
   310   18   HT         5.679000   10.540000    3.034500      0.41       1.0080
   311   17   OT         8.414000    5.080000   -2.018500     -0.82      15.9994
   312   18   HT         9.201000    5.729000   -1.903500      0.41       1.0080
   313   18   HT         8.323000    4.414000   -1.220500      0.41       1.0080
   314   17   OT        21.683000   16.874000   10.459500     -0.82      15.9994
   315   18   HT        22.450000   16.874000    9.767500      0.41       1.0080
   316   18   HT        21.925000   17.095000   11.424500      0.41       1.0080
   317   17   OT        16.642000   11.026000   -2.757500     -0.82      15.9994
   318   18   HT        15.924000   10.744000   -3.462500      0.41       1.0080
   319   18   HT        17.360000   11.350000   -3.406500      0.41       1.0080
   320   17   OT        11.293000   19.087000    2.590500     -0.82      15.9994
   321   18   HT        10.701000   18.977000    3.407500      0.41       1.0080
   322   18   HT        10.722000   19.135000    1.719500      0.41       1.0080
   323   17   OT        20.954000   21.004000   19.583500     -0.82      15.9994
   324   18   HT        20.282000   20.278000   19.247500      0.41       1.0080
   325   18   HT        21.780000   21.047000   18.940500      0.41       1.0080
   326   17   OT        19.916000   11.246000   16.339500     -0.82      15.9994
   327   18   HT        20.861000   11.475000   16.732500      0.41       1.0080
   328   18   HT        19.942000   11.052000   15.328500      0.41       1.0080
   329   17   OT         0.781000   15.936000   17.665500     -0.82      15.9994
   330   18   HT         0.455000   16.884000   17.441500      0.41       1.0080
   331   18   HT         1.274000   15.437000   16.901500      0.41       1.0080
   332   17   OT         2.963000    1.328000    3.211500     -0.82      15.9994
   333   18   HT         3.144000    1.905000    4.058500      0.41       1.0080
   334   18   HT         2.533000    1.945000    2.517500      0.41       1.0080
   335   17   OT        10.430000   19.231000   11.286500     -0.82      15.9994
   336   18   HT        10.245000   19.985000   10.664500      0.41       1.0080
   337   18   HT         9.882000   19.409000   12.135500      0.41       1.0080
   338   17   OT         5.817000   20.279000   17.369500     -0.82      15.9994
   339   18   HT         6.030000   20.506000   18.336500      0.41       1.0080
   340   18   HT         5.311000   21.107000   17.008500      0.41       1.0080
   341   17   OT        10.773000    3.414000    2.219500     -0.82      15.9994
   342   18   HT        11.037000    3.276000    1.203500      0.41       1.0080
   343   18   HT        11.124000    4.342000    2.453500      0.41       1.0080
   344   17   OT        21.280000   21.696000   11.729500     -0.82      15.9994
   345   18   HT        20.547000   21.593000   11.046500      0.41       1.0080
   346   18   HT        22.098000   21.133000   11.437500      0.41       1.0080
   347   17   OT        17.623000    3.277000   -1.349500     -0.82      15.9994
   348   18   HT        18.140000    2.376000   -1.415500      0.41       1.0080
   349   18   HT        17.875000    3.727000   -2.299500      0.41       1.0080
   350   17   OT        10.963000   20.647000   19.270500     -0.82      15.9994
   351   18   HT        10.991000   19.618000   19.275500      0.41       1.0080
   352   18   HT        10.326000   20.947000   18.525500      0.41       1.0080
   353   17   OT        17.070000    9.091000   -0.907500     -0.82      15.9994
   354   18   HT        16.770000    9.728000   -1.629500      0.41       1.0080
   355   18   HT        16.758000    9.347000    0.003500      0.41       1.0080
   356   17   OT        -0.253000    2.596000   18.752500     -0.82      15.9994
   357   18   HT         0.444000    2.116000   19.330500      0.41       1.0080
   358   18   HT        -0.329000    3.630000   18.854500      0.41       1.0080
   359   17   OT         6.511000    8.147000   19.031500     -0.82      15.9994
   360   18   HT         6.694000    8.043000   18.026500      0.41       1.0080
   361   18   HT         6.375000    7.156000   19.331500      0.41       1.0080
   362   17   OT         9.941000   13.603000   -0.221500     -0.82      15.9994
   363   18   HT        10.570000   13.934000   -0.962500      0.41       1.0080
   364   18   HT         9.432000   12.924000   -0.744500      0.41       1.0080
   365   17   OT         5.825000   19.732000    6.318500     -0.82      15.9994
   366   18   HT         4.994000   19.688000    6.839500      0.41       1.0080
   367   18   HT         5.718000   20.236000    5.419500      0.41       1.0080
   368   17   OT        18.979000   20.715000    3.860500     -0.82      15.9994
   369   18   HT        17.986000   20.416000    3.799500      0.41       1.0080
   370   18   HT        19.088000   21.239000    4.736500      0.41       1.0080
   371   17   OT         7.915000   18.204000    6.353500     -0.82      15.9994
   372   18   HT         7.808000   17.976000    7.347500      0.41       1.0080
   373   18   HT         7.034000   18.766000    6.153500      0.41       1.0080
   374   17   OT         9.357000   21.051000    9.476500     -0.82      15.9994
   375   18   HT         8.675000   21.203000    8.735500      0.41       1.0080
   376   18   HT         9.251000   21.886000   10.036500      0.41       1.0080
   377   17   OT        11.688000   11.842000   14.567500     -0.82      15.9994
   378   18   HT        11.524000   12.579000   15.266500      0.41       1.0080
   379   18   HT        11.245000   10.948000   14.892500      0.41       1.0080
   380   17   OT        16.968000   14.473000    5.473500     -0.82      15.9994
   381   18   HT        16.578000   13.531000    5.635500      0.41       1.0080
   382   18   HT        17.948000   14.255000    5.284500      0.41       1.0080
   383   17   OT        16.559000   22.561000    1.324500     -0.82      15.9994
   384   18   HT        16.442000   22.998000    0.404500      0.41       1.0080
   385   18   HT        17.584000   22.586000    1.461500      0.41       1.0080
   386   17   OT        16.576000    5.007000   11.671500     -0.82      15.9994
   387   18   HT        15.607000    4.623000   11.830500      0.41       1.0080
   388   18   HT        16.512000    6.009000   11.981500      0.41       1.0080
   389   17   OT        20.727000    9.138000    4.595500     -0.82      15.9994
   390   18   HT        21.277000    8.641000    3.924500      0.41       1.0080
   391   18   HT        20.590000   10.026000    4.073500      0.41       1.0080
   392   17   OT         4.636000   17.929000   17.464500     -0.82      15.9994
   393   18   HT         3.825000   17.753000   16.886500      0.41       1.0080
   394   18   HT         5.002000   18.872000   17.441500      0.41       1.0080
   395   17   OT        11.383000    3.389000   -0.465500     -0.82      15.9994
   396   18   HT        11.541000    2.467000   -0.920500      0.41       1.0080
   397   18   HT        10.509000    3.739000   -0.854500      0.41       1.0080
   398   17   OT        19.948000    1.600000   18.519500     -0.82      15.9994
   399   18   HT        19.003000    1.174000   18.496500      0.41       1.0080
   400   18   HT        20.634000    0.858000   18.342500      0.41       1.0080
   401   17   OT        19.457000   13.455000    4.725500     -0.82      15.9994
   402   18   HT        19.841000   13.534000    3.766500      0.41       1.0080
   403   18   HT        20.070000   12.801000    5.289500      0.41       1.0080
   404   17   OT        17.349000   16.835000   11.600500     -0.82      15.9994
   405   18   HT        17.973000   16.428000   12.302500      0.41       1.0080
   406   18   HT        17.541000   16.498000   10.660500      0.41       1.0080
   407   17   OT        -1.661000   13.760000   12.242500     -0.82      15.9994
   408   18   HT        22.183000   13.174000   11.514500      0.41       1.0080
   409   18   HT        -0.798000   14.165000   11.824500      0.41       1.0080
   410   17   OT         0.867000   -0.375000   -0.155500     -0.82      15.9994
   411   18   HT         0.344000   -1.189000   -0.507500      0.41       1.0080
   412   18   HT         1.317000    0.047000   -0.982500      0.41       1.0080
   413   17   OT        18.209000    8.884000   18.601500     -0.82      15.9994
   414   18   HT        18.245000    8.072000   19.205500      0.41       1.0080
   415   18   HT        17.605000    8.608000   17.801500      0.41       1.0080
   416   17   OT         8.915000   17.943000   13.533500     -0.82      15.9994
   417   18   HT         7.970000   17.702000   13.786500      0.41       1.0080
   418   18   HT         9.384000   17.132000   13.180500      0.41       1.0080
   419   17   OT        21.041000    3.511000    7.703500     -0.82      15.9994
   420   18   HT        20.352000    3.177000    8.385500      0.41       1.0080
   421   18   HT        21.044000    2.806000    6.946500      0.41       1.0080
   422   17   OT         1.940000   11.408000   15.173500     -0.82      15.9994
   423   18   HT         2.659000   10.716000   14.965500      0.41       1.0080
   424   18   HT         1.272000   11.537000   14.366500      0.41       1.0080
   425   19   _QM_       5.434000   11.534000    5.956500      0.00      15.9994
   426   20   _QM_       5.530000   11.567000    4.925500      0.00       1.0080
   427   20   _QM_       5.861000   10.672000    6.331500      0.00       1.0080
   428   17   OT         5.181000   14.680000    5.045500     -0.82      15.9994
   429   18   HT         6.111000   15.014000    4.970500      0.41       1.0080
   430   18   HT         5.107000   13.807000    5.594500      0.41       1.0080
   431   17   OT        -0.577000    5.451000   19.139500     -0.82      15.9994
   432   18   HT        -1.365000    5.734000   18.519500      0.41       1.0080
   433   18   HT         0.183000    6.103000   18.900500      0.41       1.0080
   434   17   OT        -0.780000    4.877000    7.342500     -0.82      15.9994
   435   18   HT        -1.768000    4.610000    7.236500      0.41       1.0080
   436   18   HT        -0.315000    4.267000    8.038500      0.41       1.0080
   437   17   OT         9.226000   10.472000    2.123500     -0.82      15.9994
   438   18   HT         9.307000    9.480000    1.846500      0.41       1.0080
   439   18   HT         8.850000   10.867000    1.249500      0.41       1.0080
   440   17   OT        11.680000    6.222000    2.275500     -0.82      15.9994
   441   18   HT        12.454000    6.336000    1.590500      0.41       1.0080
   442   18   HT        12.143000    6.312000    3.219500      0.41       1.0080
   443   17   OT         5.955000    3.109000    8.790500     -0.82      15.9994
   444   18   HT         6.694000    3.692000    9.155500      0.41       1.0080
   445   18   HT         6.300000    2.150000    8.811500      0.41       1.0080
   446   17   OT        10.082000   19.112000    0.213500     -0.82      15.9994
   447   18   HT         9.905000   19.839000   -0.541500      0.41       1.0080
   448   18   HT         9.440000   18.345000   -0.070500      0.41       1.0080
   449   17   OT        14.348000   22.471000   -3.291500     -0.82      15.9994
   450   18   HT        13.909000   22.996000   -4.066500      0.41       1.0080
   451   18   HT        14.305000   21.511000   -3.671500      0.41       1.0080
   452   17   OT         1.966000    3.427000    1.483500     -0.82      15.9994
   453   18   HT         1.042000    2.979000    1.630500      0.41       1.0080
   454   18   HT         1.903000    4.187000    0.795500      0.41       1.0080
   455   17   OT        -0.780000   14.625000   14.879500     -0.82      15.9994
   456   18   HT         0.075000   14.165000   15.237500      0.41       1.0080
   457   18   HT        -1.165000   14.038000   14.158500      0.41       1.0080
   458   17   OT        20.255000   12.000000    0.332500     -0.82      15.9994
   459   18   HT        20.909000   12.184000   -0.458500      0.41       1.0080
   460   18   HT        19.354000   12.406000    0.042500      0.41       1.0080
   461   17   OT        14.511000   17.220000    0.370500     -0.82      15.9994
   462   18   HT        14.060000   16.797000   -0.474500      0.41       1.0080
   463   18   HT        13.736000   17.672000    0.868500      0.41       1.0080
   464   17   OT        18.511000   10.582000   10.821500     -0.82      15.9994
   465   18   HT        19.317000   10.628000   10.238500      0.41       1.0080
   466   18   HT        18.793000   10.457000   11.770500      0.41       1.0080
   467   17   OT         5.521000    7.341000    9.992500     -0.82      15.9994
   468   18   HT         5.763000    7.974000    9.247500      0.41       1.0080
   469   18   HT         4.785000    7.771000   10.583500      0.41       1.0080
   470   17   OT        17.169000   19.355000   10.286500     -0.82      15.9994
   471   18   HT        16.706000   19.292000    9.404500      0.41       1.0080
   472   18   HT        17.143000   18.414000   10.684500      0.41       1.0080
   473   17   OT         2.280000   17.454000   -2.276500     -0.82      15.9994
   474   18   HT         2.604000   17.222000   -3.240500      0.41       1.0080
   475   18   HT         1.294000   17.729000   -2.208500      0.41       1.0080
   476   17   OT         0.017000    7.552000    8.250500     -0.82      15.9994
   477   18   HT         0.969000    7.597000    7.799500      0.41       1.0080
   478   18   HT        -0.556000    6.911000    7.627500      0.41       1.0080
   479   17   OT        -1.994000   11.563000   17.581500     -0.82      15.9994
   480   18   HT        -1.419000   10.834000   17.147500      0.41       1.0080
   481   18   HT        -1.542000   11.934000   18.444500      0.41       1.0080
   482   17   OT        18.826000    5.200000   13.202500     -0.82      15.9994
   483   18   HT        18.337000    4.419000   13.600500      0.41       1.0080
   484   18   HT        18.517000    5.358000   12.235500      0.41       1.0080
   485   17   OT         9.175000    7.370000   13.949500     -0.82      15.9994
   486   18   HT         8.496000    7.316000   13.170500      0.41       1.0080
   487   18   HT         9.841000    6.629000   14.029500      0.41       1.0080
   488   17   OT        17.875000   13.135000   14.006500     -0.82      15.9994
   489   18   HT        18.585000   13.706000   14.433500      0.41       1.0080
   490   18   HT        17.930000   13.352000   13.074500      0.41       1.0080
   491   17   OT         1.917000    3.116000    8.850500     -0.82      15.9994
   492   18   HT         2.502000    2.350000    9.170500      0.41       1.0080
   493   18   HT         2.566000    3.329000    8.110500      0.41       1.0080
   494   17   OT        14.768000   19.107000   17.136500     -0.82      15.9994
   495   18   HT        13.755000   18.937000   17.383500      0.41       1.0080
   496   18   HT        15.361000   18.294000   16.784500      0.41       1.0080
   497   17   OT        16.555000    1.001000   14.757500     -0.82      15.9994
   498   18   HT        17.076000    1.830000   15.106500      0.41       1.0080
   499   18   HT        16.741000    0.993000   13.760500      0.41       1.0080
   500   17   OT        -0.455000   18.579000   -2.269500     -0.82      15.9994
   501   18   HT        -0.719000   19.074000   -1.397500      0.41       1.0080
   502   18   HT        -1.234000   18.256000   -2.800500      0.41       1.0080
   503   19   _QM_       6.333000   14.567000    7.837500      0.00      15.9994
   504   20   _QM_       6.037000   15.149000    7.055500      0.00       1.0080
   505   20   _QM_       7.016000   15.199000    8.244500      0.00       1.0080
   506   17   OT        12.020000    1.029000   19.737500     -0.82      15.9994
   507   18   HT        12.773000    1.570000   19.243500      0.41       1.0080
   508   18   HT        12.056000    0.058000   19.430500      0.41       1.0080
   509   17   OT        -1.192000    9.117000   12.619500     -0.82      15.9994
   510   18   HT        -0.470000    8.623000   12.068500      0.41       1.0080
   511   18   HT        -1.972000    8.447000   12.513500      0.41       1.0080
   512   17   OT        -0.199000    3.417000   12.741500     -0.82      15.9994
   513   18   HT         0.779000    3.572000   12.581500      0.41       1.0080
   514   18   HT        -0.734000    3.929000   12.013500      0.41       1.0080
   515   17   OT        10.376000   -0.150000   17.458500     -0.82      15.9994
   516   18   HT         9.777000   -0.909000   17.214500      0.41       1.0080
   517   18   HT         9.911000    0.576000   17.994500      0.41       1.0080
   518   17   OT         3.307000   20.480000   13.892500     -0.82      15.9994
   519   18   HT         3.260000   19.523000   14.328500      0.41       1.0080
   520   18   HT         2.720000   21.144000   14.401500      0.41       1.0080
   521   17   OT        11.364000    4.627000   -3.603500     -0.82      15.9994
   522   18   HT        12.155000    4.248000   -3.175500      0.41       1.0080
   523   18   HT        10.717000    3.841000   -3.834500      0.41       1.0080
   524   17   OT        13.075000   22.957000    1.771500     -0.82      15.9994
   525   18   HT        12.915000   22.241000    2.520500      0.41       1.0080
   526   18   HT        13.896000   23.577000    2.008500      0.41       1.0080
   527   17   OT        13.813000    2.155000    9.635500     -0.82      15.9994
   528   18   HT        13.873000    1.115000    9.744500      0.41       1.0080
   529   18   HT        14.270000    2.615000    8.876500      0.41       1.0080
   530   17   OT        10.736000    6.177000   -1.270500     -0.82      15.9994
   531   18   HT        11.002000    5.368000   -0.671500      0.41       1.0080
   532   18   HT        11.668000    6.529000   -1.583500      0.41       1.0080
   533   17   OT        13.995000    5.403000    4.052500     -0.82      15.9994
   534   18   HT        14.729000    6.100000    4.012500      0.41       1.0080
   535   18   HT        14.098000    4.882000    3.173500      0.41       1.0080
   536   17   OT        10.140000    1.149000   14.956500     -0.82      15.9994
   537   18   HT         9.479000    0.321000   14.908500      0.41       1.0080
   538   18   HT        10.591000    1.164000   15.904500      0.41       1.0080
   539   17   OT         4.364000    2.931000   11.950500     -0.82      15.9994
   540   18   HT         4.189000    2.620000   12.917500      0.41       1.0080
   541   18   HT         5.181000    3.509000   11.899500      0.41       1.0080
   542   17   OT        -0.898000   19.723000   11.101500     -0.82      15.9994
   543   18   HT        -0.587000   18.872000   10.619500      0.41       1.0080
   544   18   HT        -0.181000   20.418000   11.273500      0.41       1.0080
   545   17   OT        13.400000    9.898000    4.813500     -0.82      15.9994
   546   18   HT        14.236000    9.275000    4.709500      0.41       1.0080
   547   18   HT        13.341000   10.473000    5.645500      0.41       1.0080
   548   17   OT         1.171000    0.224000   16.406500     -0.82      15.9994
   549   18   HT         0.805000    1.183000   16.217500      0.41       1.0080
   550   18   HT         1.607000    0.276000   17.374500      0.41       1.0080
   551   17   OT         2.916000   12.254000    6.392500     -0.82      15.9994
   552   18   HT         2.748000   12.555000    7.368500      0.41       1.0080
   553   18   HT         3.788000   11.779000    6.320500      0.41       1.0080
   554   17   OT        20.320000    9.920000    8.899500     -0.82      15.9994
   555   18   HT        19.805000    9.068000    8.772500      0.41       1.0080
   556   18   HT        21.268000    9.695000    8.613500      0.41       1.0080
   557   17   OT         4.768000    5.840000    6.070500     -0.82      15.9994
   558   18   HT         5.715000    6.173000    6.366500      0.41       1.0080
   559   18   HT         4.713000    5.797000    5.058500      0.41       1.0080
   560   17   OT        21.753000   17.589000   -3.748500     -0.82      15.9994
   561   18   HT        21.573000   16.604000   -3.979500      0.41       1.0080
   562   18   HT        21.076000   18.222000   -4.279500      0.41       1.0080
   563   17   OT         7.636000    5.243000   16.048500     -0.82      15.9994
   564   18   HT         8.159000    4.651000   15.418500      0.41       1.0080
   565   18   HT         6.829000    4.740000   16.520500      0.41       1.0080
   566   17   OT        20.625000   22.942000   -2.587500     -0.82      15.9994
   567   18   HT        21.491000   -0.951000   -2.179500      0.41       1.0080
   568   18   HT        20.790000   22.204000   -3.296500      0.41       1.0080
   569   17   OT        15.252000    3.033000   16.077500     -0.82      15.9994
   570   18   HT        15.921000    3.734000   15.824500      0.41       1.0080
   571   18   HT        15.601000    2.642000   16.959500      0.41       1.0080
   572   17   OT        16.936000    1.141000   11.883500     -0.82      15.9994
   573   18   HT        16.848000    0.166000   11.597500      0.41       1.0080
   574   18   HT        17.799000    1.435000   11.411500      0.41       1.0080
   575   17   OT        12.066000   12.976000   17.847500     -0.82      15.9994
   576   18   HT        11.723000   13.219000   18.789500      0.41       1.0080
   577   18   HT        12.991000   12.618000   17.889500      0.41       1.0080
   578   17   OT         2.753000    6.725000    8.054500     -0.82      15.9994
   579   18   HT         3.080000    7.547000    7.462500      0.41       1.0080
   580   18   HT         3.591000    6.055000    8.119500      0.41       1.0080
   581   17   OT        17.073000    8.460000   16.203500     -0.82      15.9994
   582   18   HT        17.730000    8.233000   15.439500      0.41       1.0080
   583   18   HT        17.224000    9.475000   16.424500      0.41       1.0080
   584   17   OT        12.166000   17.608000   12.481500     -0.82      15.9994
   585   18   HT        12.938000   17.206000   11.927500      0.41       1.0080
   586   18   HT        11.566000   17.888000   11.738500      0.41       1.0080
   587   17   OT         0.849000   19.946000   19.705500     -0.82      15.9994
   588   18   HT         0.391000   19.665000   20.592500      0.41       1.0080
   589   18   HT         1.498000   19.153000   19.490500      0.41       1.0080
   590   17   OT        14.770000   17.219000    8.981500     -0.82      15.9994
   591   18   HT        14.764000   16.529000    9.693500      0.41       1.0080
   592   18   HT        14.315000   18.056000    9.363500      0.41       1.0080
[...]
              Maximum number of particle pairs:                              108
              Average number of matrix element:                            18488
              Maximum number of matrix elements:                           26074


 DISTRIBUTION OF THE OVERLAP MATRIX
              Number  of non-zero blocks:                                   1275
              Percentage non-zero blocks:                                 100.00
              Average number of blocks per CPU:                               64
              Maximum number of blocks per CPU:                               81
              Average number of matrix elements per CPU:                   11979
              Maximum number of matrix elements per CPU:                   14016

 Number of electrons:                                                        134
 Number of occupied orbitals:                                                 67
 Number of molecular orbitals:                                                67

 Number of orbital functions:                                                684
 Number of independent orbital functions:                                    684

  Parameters for the always stable predictor-corrector (ASPC) method:

  ASPC order: 3

  B(1) =   3.000000
  B(2) =  -3.428571
  B(3) =   1.928571
  B(4) =  -0.571429
  B(5) =   0.071429

 Extrapolation method: ASPC


 SCF WAVEFUNCTION OPTIMIZATION

  ----------------------------------- OT ---------------------------------------

  Allowing for rotations:  F
  Optimizing orbital energies:  F
  Minimizer      : DIIS                : direct inversion
                                         in the iterative subspace
                            using      : -   7 DIIS vectors
                                         - safer DIIS on
  Preconditioner : FULL_ALL            : diagonalization, state selective
  Precond_solver : DEFAULT
  stepsize       :    0.15000000
  energy_gap     :    0.20000000

  eps_taylor     :   0.10000E-15
  max_taylor     :             4

  mixed_precision    : F

  ----------------------------------- OT ---------------------------------------

  Step     Update method      Time    Convergence         Total energy    Change
  ------------------------------------------------------------------------------

  Trace(PS):                                  134.0000000000
  Electronic density on regular grids:       -133.9999999937        0.0000000063
  Core density on regular grids:              133.9999999951       -0.0000000049
  Total charge density on r-space grids:        0.0000000014
  Total charge density g-space grids:           0.0000000014

  Decoupling Energy:                                               0.0002541295
  Recoupling Energy:                                              -0.0001615625
  Adding QM/MM electrostatic potential to the Kohn-Sham potential.

  HFX_MEM_INFO| Est. max. program size before HFX [MB's]:                   1981
  HFX_MEM_INFO| Number of cart. primitive ERI's calculated:          14168753822
  HFX_MEM_INFO| Number of sph. ERI's calculated:                     15649941103
  HFX_MEM_INFO| Number of sph. ERI's stored in-core:                  3566510860
  HFX_MEM_INFO| Number of sph. ERI's stored on disk:                           0
  HFX_MEM_INFO| Number of sph. ERI's calculated on the fly:          12083430243
  HFX_MEM_INFO| Total memory consumption ERI's RAM [MB's]:                 10182
  HFX_MEM_INFO| Whereof max-vals [MB's]:                                       2
  HFX_MEM_INFO| Total compression factor ERI's RAM:                         2.67
  HFX_MEM_INFO| Total memory consumption ERI's disk [MB's]:                    0
  HFX_MEM_INFO| Total compression factor ERI's disk:                        0.00
  HFX_MEM_INFO| Size of density/Fock matrix [MB's]:                            2
  HFX_MEM_INFO| Size of buffers [MB's]:                                        0
  HFX_MEM_INFO| Number of periodic image cells considered:                    27
  HFX_MEM_INFO| Est. max. program size after HFX  [MB's]:                   1981

     1 OT DIIS     0.15E+00  142.3     0.00001911      -275.8307462707 -2.76E+02

  Trace(PS):                                  134.0000000000
  Electronic density on regular grids:       -133.9999999937        0.0000000063
  Core density on regular grids:              133.9999999951       -0.0000000049
  Total charge density on r-space grids:        0.0000000014
  Total charge density g-space grids:           0.0000000014

  Decoupling Energy:                                               0.0002542589
  Recoupling Energy:                                              -0.0001616365
  Adding QM/MM electrostatic potential to the Kohn-Sham potential.
     2 OT DIIS     0.15E+00  111.8     0.00000840      -275.8307477309 -1.46E-06

  *** SCF run converged in     2 steps ***


  Electronic density on regular grids:       -133.9999999937        0.0000000063
  Core density on regular grids:              133.9999999951       -0.0000000049
  Total charge density on r-space grids:        0.0000000014
  Total charge density g-space grids:           0.0000000014

  Overlap energy of the core charge distribution:               0.00000233548926
  Self energy of the core charge distribution:               -710.98315830526133
  Core Hamiltonian energy:                                    205.88264361049025
  Hartree energy:                                             297.47410479514542
  Exchange-correlation energy:                                -55.82799811152260
  Hartree-Fock Exchange energy:                               -12.71080556521872
  Dispersion energy:                                           -0.03411542516146
  QM/MM Electrostatic energy:                                       0.3685789351

  Total energy:                                              -275.83074773092596

  outer SCF iter =    1 RMS gradient =   0.84E-05 energy =       -275.8307477309
  outer SCF loop converged in   1 iterations or    2 steps



 MULLIKEN POPULATION ANALYSIS

 #  Atom  Element  Kind  Atomic population                Net charge
       1     H        1          0.623667                  0.376333
       2     H        1          0.613122                  0.386878
       3     H        1          0.571969                  0.428031
       4     H        1          0.551224                  0.448776
       5     H        1          0.587384                  0.412616
       6     H        1          0.589953                  0.410047
       7     H        1          0.599242                  0.400758
       8     H        1          0.587123                  0.412877
       9     H        1          0.546926                  0.453074
      10     H        1          0.579323                  0.420677
      11     H        1          0.624241                  0.375759
      12     H        1          0.601416                  0.398584
      13     H        1          0.650361                  0.349639
      14     H        1          0.558455                  0.441545
      15     H        1          0.623426                  0.376574
      16     H        1          0.578248                  0.421752
      17     H        1          0.595823                  0.404177
      18     H        1          0.586084                  0.413916
      19     H        1          0.581527                  0.418473
      20     H        1          0.605556                  0.394444
      21     H        1          0.565713                  0.434287
      22     H        1          0.613739                  0.386261
      23     H        1          0.566325                  0.433675
      24     H        1          0.564190                  0.435810
      25     H        1          0.618651                  0.381349
      26     H        1          0.579138                  0.420862
      27     H        1          0.592065                  0.407935
      28     O        2          6.797238                 -0.797238
      29     O        2          6.917048                 -0.917048
      30     O        2          6.728425                 -0.728425
      31     O        2          6.738054                 -0.738054
      32     O        2          6.849380                 -0.849380
      33     O        2          6.811582                 -0.811582
      34     O        2          6.763525                 -0.763525
      35     O        2          6.781126                 -0.781126
      36     O        2          6.835214                 -0.835214
      37     O        2          6.873712                 -0.873712
      38     O        2          6.777398                 -0.777398
      39     O        2          6.796757                 -0.796757
      40     O        2          6.792661                 -0.792661
      41     H        1          0.838172                  0.161828
      42     H        1          0.877038                  0.122962
      43     H        1          0.852921                  0.147079
      44     H        1          0.923395                  0.076605
      45     C        3          4.378439                 -0.378439
      46     C        3          4.130321                 -0.130321
      47     C        3          3.286049                  0.713951
      48     O        2          6.781589                 -0.781589
      49     O        2          6.565997                 -0.565997
      50     H        4          0.949064                  0.050936
 # Total charge                134.000000                  0.000000


 ENERGY| Total FORCE_EVAL ( QS ) energy (a.u.):             -275.830747730925964

 QMMM| QM/MM Nuclear Electrostatic Potential :                      -0.881627968
 QMMM| QMMM Total Energy (QM + QMMM electronic + QMMM nuclear):   -276.712375699
 QMMM| MM energy NOT included in the above term! Check for:  FORCE_EVAL ( QMMM )
 QMMM| that includes both QM, QMMM and MM energy terms!

 ENERGY| Total FORCE_EVAL ( QMMM ) energy (a.u.):           -283.526958779365714


 -------------------------------------------------------------------------------
 ----                             MULTIGRID INFO                            ----
 -------------------------------------------------------------------------------
 count for grid        1:         605045          cutoff [a.u.]          360.00
 count for grid        2:         499994          cutoff [a.u.]           90.00
 count for grid        3:         226715          cutoff [a.u.]           22.50
 count for grid        4:          10214          cutoff [a.u.]            5.62
 total gridlevel count  :        1341968

 -------------------------------------------------------------------------------
 -                                                                             -
 -                         MESSAGE PASSING PERFORMANCE                         -
 -                                                                             -
 -------------------------------------------------------------------------------

 ROUTINE             CALLS  TOT TIME [s]  AVE VOLUME [Bytes]  PERFORMANCE [MB/s]
 MP_Group               14         0.000
 MP_Bcast              403         0.021            4009048.            78429.43
 MP_Allreduce         5263        47.326               1381.                0.15
 MP_Gather              44         0.004                400.                4.63
 MP_Sync               436       489.442
 MP_Alltoall          1066        10.149           39360556.             4134.36
 MP_SendRecv          5152         9.135             266414.              150.25
 MP_ISendRecv         7581         0.025             146718.            43618.49
 MP_Wait             15742         9.508
 MP_comm_split          46         0.004
 MP_ISend             7255         0.062            1729179.           201367.42
 MP_IRecv             7248         0.183            1729854.            68513.57
 MP_Recv                99         0.000              38304.             7584.19
 -------------------------------------------------------------------------------


 -------------------------------------------------------------------------------
 -                                                                             -
 -                           R E F E R E N C E S                               -
 -                                                                             -
 -------------------------------------------------------------------------------
 
 CP2K version 2.4.0, the CP2K developers group (2013).
 CP2K is freely available from http://www.cp2k.org/ .

 Grimme, S; Antony, J; Ehrlich, S; Krieg, H. 
 JOURNAL OF CHEMICAL PHYSICS, 132 (15), 154104 (2010). 
 A consistent and accurate ab initio parametrization of density
 functional dispersion correction (DFT-D) for the 94 elements H-Pu.
 http://dx.doi.org/10.1063/1.3382344


 Guidon, M; Hutter, J; VandeVondele, J. 
 JOURNAL OF CHEMICAL THEORY AND COMPUTATION, 5 (11), 3010-3021 (2009). 
 Robust Periodic Hartree-Fock Exchange for Large-Scale Simulations Using
 Gaussian Basis Sets.
 http://dx.doi.org/10.1021/ct900494g


 Guidon, M; Schiffmann, F; Hutter, J; VandeVondele, J. 
 JOURNAL OF CHEMICAL PHYSICS, 128 (21), 214104 (2008). 
 Ab initio molecular dynamics using hybrid density functionals.
 http://dx.doi.org/10.1063/1.2931945


 Laino, T; Mohamed, F; Laio, A; Parrinello, M. 
 JOURNAL OF CHEMICAL THEORY AND COMPUTATION, 2 (5), 1370-1378 (2006). 
 An efficient linear-scaling electrostatic coupling for treating
 periodic boundary conditions in QM/MM simulations.
 http://dx.doi.org/10.1021/ct6001169


 Laino, T; Mohamed, F; Laio, A; Parrinello, M. 
 JOURNAL OF CHEMICAL THEORY AND COMPUTATION, 1 (6), 1176-1184 (2005). 
 An efficient real space multigrid OM/MM electrostatic coupling.
 http://dx.doi.org/10.1021/ct050123f


 Krack, M. 
 THEORETICAL CHEMISTRY ACCOUNTS, 114 (1-3), 145-152 (2005). 
 Pseudopotentials for H to Kr optimized for gradient-corrected
 exchange-correlation functionals.
 http://dx.doi.org/10.1007/s00214-005-0655-y


 VandeVondele, J; Krack, M; Mohamed, F; Parrinello, M; Chassaing, T;
 Hutter, J. COMPUTER PHYSICS COMMUNICATIONS, 167 (2), 103-128 (2005). 
 QUICKSTEP: Fast and accurate density functional calculations using a
 mixed Gaussian and plane waves approach.
 http://dx.doi.org/10.1016/j.cpc.2004.12.014


 Frigo, M; Johnson, SG. 
 PROCEEDINGS OF THE IEEE, 93 (2), 216-231 (2005). 
 The design and implementation of FFTW3.
 http://dx.doi.org/10.1109/JPROC.2004.840301


 Kolafa, J. 
 JOURNAL OF COMPUTATIONAL CHEMISTRY, 25 (3), 335-342 (2004). 
 Time-reversible always stable predictor-corrector method for molecular dynamics of polarizable molecules.
 http://dx.doi.org/10.1002/jcc.10385


 VandeVondele, J; Hutter, J. 
 JOURNAL OF CHEMICAL PHYSICS, 118 (10), 4365-4369 (2003). 
 An efficient orbital transformation method for electronic structure
 calculations.
 http://dx.doi.org/10.1063/1.1543154


 Hartwigsen, C; Goedecker, S; Hutter, J. 
 PHYSICAL REVIEW B, 58 (7), 3641-3662 (1998). 
 Relativistic separable dual-space Gaussian pseudopotentials from H to Rn.
 http://dx.doi.org/10.1103/PhysRevB.58.3641


 Lippert, G; Hutter, J; Parrinello, M. 
 MOLECULAR PHYSICS, 92 (3), 477-487 (1997). 
 A hybrid Gaussian and plane wave density functional scheme.
 http://dx.doi.org/10.1080/002689797170220


 Goedecker, S; Teter, M; Hutter, J. 
 PHYSICAL REVIEW B, 54 (3), 1703-1710 (1996). 
 Separable dual-space Gaussian pseudopotentials.
 http://dx.doi.org/10.1103/PhysRevB.54.1703


 ESSMANN, U; PERERA, L; BERKOWITZ, ML; DARDEN, T; LEE, H; PEDERSEN, LG. 
 JOURNAL OF CHEMICAL PHYSICS, 103 (19), 8577-8593 (1995). 
 A SMOOTH PARTICLE MESH EWALD METHOD.
 http://dx.doi.org/10.1063/1.470117


 BLOCHL, PE. 
 JOURNAL OF CHEMICAL PHYSICS, 103 (17), 7422-7428 (1995). 
 ELECTROSTATIC DECOUPLING OF PERIODIC IMAGES OF PLANE-WAVE-EXPANDED
 DENSITIES AND DERIVED ATOMIC POINT CHARGES.
 http://dx.doi.org/10.1063/1.470314


 BECKE, AD. PHYSICAL REVIEW A, 38 (6), 3098-3100 (1988). 
 DENSITY-FUNCTIONAL EXCHANGE-ENERGY APPROXIMATION WITH CORRECT
 ASYMPTOTIC-BEHAVIOR.
 http://dx.doi.org/10.1103/PhysRevA.38.3098


 LEE, CT; YANG, WT; PARR, RG. 
 PHYSICAL REVIEW B, 37 (2), 785-789 (1988). 
 DEVELOPMENT OF THE COLLE-SALVETTI CORRELATION-ENERGY FORMULA INTO A
 FUNCTIONAL OF THE ELECTRON-DENSITY.
 http://dx.doi.org/10.1103/PhysRevB.37.785


 VOSKO, SH; WILK, L; NUSAIR, M. 
 CANADIAN JOURNAL OF PHYSICS, 58 (8), 1200-1211 (1980). 
 ACCURATE SPIN-DEPENDENT ELECTRON LIQUID CORRELATION ENERGIES FOR LOCAL
 SPIN-DENSITY CALCULATIONS - A CRITICAL ANALYSIS.
 http://dx.doi.org/10.1139/p80-159


 -------------------------------------------------------------------------------
 -                                                                             -
 -                                T I M I N G                                  -
 -                                                                             -
 -------------------------------------------------------------------------------
 SUBROUTINE                       CALLS  ASD         SELF TIME        TOTAL TIME
                                              AVERAGE  MAXIMUM  AVERAGE  MAXIMUM
 CP2K                                 1  1.0    0.317    0.372 9201.484 9201.509
 cp_geo_opt                           1  2.0    0.014    0.021 9197.821 9197.829
 geoopt_cg                            1  3.0    0.003    0.011 9197.808 9197.815
 cp_cg_main                           1  4.0    0.008    0.015 9197.804 9197.814
 cp_eval_at                          11  8.3    0.139    2.138 9197.105 9197.591
 qs_ks_build_kohn_sham_matrix        58 14.0    0.067    0.086 9056.192 9056.220
 hfx_ks_matrix                       58 15.0    0.009    0.012 8921.197 8921.213
 cg_linmin                            1  5.0    0.003    0.010 8077.012 8077.027
 linmin_gold                          1  6.0    0.001    0.005 8077.008 8077.023
 qs_forces                            7  9.4    0.013    0.017 7437.059 7437.078
 integrate_four_center               58 16.0  387.196  519.492 6731.944 6731.957
 cg_dbrent                            1  7.0    0.000    0.000 6615.716 6615.716
 cg_deval1d                           6  8.0    0.000    0.000 6615.062 6615.648
 integrate_four_center_main          58 17.0    0.024    0.031 6343.546 6473.367
 integrate_four_center_bin         3712 18.0 6343.521 6473.340 6343.521 6473.340
 qs_energies_scf                     11  9.9    0.029    0.055 6161.391 6161.410
 scf_env_do_scf                      11 10.9    0.001    0.006 6138.755 6138.757
 qs_ks_update_qs_env                 62 13.3    0.000    0.001 6069.157 6069.182
 scf_env_do_scf_inner_loop           51 12.3    0.008    0.018 4571.738 4571.888
 qs_ks_update_qs_env_forces           7 10.4    0.000    0.000 2987.062 2987.066
 derivatives_four_center              7 13.4    0.206    0.210 2189.232 2189.238
 derivatives_four_center_main         7 14.4   59.747  105.454 2188.895 2188.899
 derivatives_four_center_bin        448 15.4 2129.148 2161.476 2129.148 2161.476
 init_scf_loop                       11 11.9    0.006    0.012 1566.864 1566.877
 cg_mnbrak                            1  7.0    0.000    0.001 1461.291 1461.306
 cg_eval1d                            3  8.0    0.000    0.002 1461.291 1461.306
 -------------------------------------------------------------------------------

  **** **** ******  **  PROGRAM ENDED AT                 2017-01-01 10:36:04.601
 ***** ** ***  *** **   PROGRAM RAN ON                                 midway762
 **    ****   ******    PROGRAM RAN BY                                          
 ***** **    ** ** **   PROGRAM PROCESS ID                                 32074
  **** **  *******  **  PROGRAM STOPPED IN /project/gavoth/hmayes/asp_glu_in_wat
                                           er/glu_3.2_cp2k/cp2k_intermed
