ITEM: TIMESTEP
545000
ITEM: NUMBER OF ATOMS
1429
ITEM: BOX BOUNDS pp pp pp
-12.1247 12.1247
-12.1247 12.1247
-12.1247 12.1247
ITEM: ATOMS id mol type q x y z
1 1 6 0.09 7.31261 -9.92792 8.19971
2 1 15 -0.27 7.95555 -9.45927 8.97366
3 1 6 0.09 7.35285 -9.19541 9.90117
4 1 6 0.09 8.79995 -10.1973 9.23763
5 1 8 0.51 8.42535 -8.24373 8.3404
6 1 9 -0.51 7.85635 -7.6536 7.44114
7 2 10 -0.47 9.58073 -7.77948 8.97739
8 2 11 0.31 10.0657 -8.44124 9.56827
9 2 3 0.07 10.2978 -6.6476 8.64247
10 2 4 0.09 10.1762 -6.30308 7.63941
11 2 3 -0.18 10.0256 -5.53029 9.7036
12 2 6 0.09 8.8927 -5.38506 9.71561
13 2 6 0.09 10.2288 -6.01367 10.69
14 2 5 -0.21 10.7364 -4.19658 9.6374
15 2 6 0.09 10.5953 -3.62677 10.5631
16 2 6 0.09 11.8165 -4.37392 9.52195
17 2 36 0.75 10.435 -3.23928 8.43081
18 2 37 -0.55 9.86857 -3.59714 7.39922
19 2 14 -0.61 10.9761 -1.96127 8.52427
20 2 8 0.51 11.6367 -7.30064 8.65962
21 2 9 -0.51 11.5597 -8.47321 9.10891
22 3 10 -0.47 -11.4834 -6.65156 8.18567
23 3 11 0.31 -11.5059 -5.67897 7.88588
24 3 15 -0.11 -10.258 -7.35662 8.01546
25 3 6 0.09 -9.64732 -7.2963 8.91292
26 3 6 0.09 -10.4002 -8.35669 7.6374
27 3 6 0.09 -9.72132 -6.85992 7.21238
28 4 38 -0.82 -4.46315 -1.77216 1.51442
29 4 39 0.41 -5.46529 -2.03287 1.65422
30 4 39 0.41 -4.2348 -2.07958 0.567481
31 257 39 0.41 -0.740769 10.8513 -2.67407
32 5 38 -0.82 8.60271 -11.9825 1.72414
33 5 39 0.41 8.3614 -11.6989 2.70209
34 5 39 0.41 8.12742 -11.3688 1.03783
35 6 38 -0.82 -11.4251 -3.06898 -8.35592
36 6 39 0.41 -11.3211 -3.81404 -9.11645
37 6 39 0.41 -11.522 -2.14449 -8.70858
38 7 38 -0.82 3.53646 -6.21586 -3.0903
39 7 39 0.41 2.72574 -6.74218 -3.4546
40 7 39 0.41 4.19485 -6.79751 -2.52202
41 8 38 -0.82 0.492327 -5.16739 2.59998
42 8 39 0.41 -0.0064451 -4.52814 1.94496
43 8 39 0.41 -0.0264252 -5.42119 3.43588
44 9 38 -0.82 5.77279 4.33668 1.17841
45 9 39 0.41 5.15434 4.0348 0.462296
46 9 39 0.41 5.60448 3.90582 2.0822
47 10 38 -0.82 3.48579 10.3593 -0.128471
48 10 39 0.41 3.47554 10.6861 0.807576
49 10 39 0.41 3.17716 9.35504 -0.232495
50 11 38 -0.82 -2.46156 9.82522 -6.6575
51 11 39 0.41 -3.22994 9.38109 -7.1551
52 11 39 0.41 -2.00543 9.22127 -5.95773
53 12 38 -0.82 10.266 -8.79695 11.8097
54 12 39 0.41 10.4328 -7.88193 -12.007
55 12 39 0.41 9.32959 -9.11591 12.0009
56 13 38 -0.82 11.9868 -8.54321 -1.16578
57 13 39 0.41 11.5298 -7.70139 -1.50655
58 13 39 0.41 11.933 -9.34484 -1.86672
59 14 38 -0.82 -7.52599 2.84609 -1.10452
60 14 39 0.41 -7.79099 3.24192 -0.132127
61 14 39 0.41 -7.02858 3.52807 -1.7219
62 15 38 -0.82 12.1147 7.02705 -4.74495
63 15 39 0.41 -11.576 7.83464 -4.91848
64 15 39 0.41 11.6177 6.67075 -5.57034
65 16 38 -0.82 -9.86419 -5.47681 -1.13512
66 16 39 0.41 -9.81007 -4.5326 -1.60861
67 16 39 0.41 -9.62863 -6.25127 -1.78821
68 17 38 -0.82 -7.81702 -0.387477 6.83134
69 17 39 0.41 -6.99886 -1.02727 7.05451
70 17 39 0.41 -8.30142 -0.0353858 7.68694
71 18 38 -0.82 -2.75479 8.77136 -2.12506
72 18 39 0.41 -3.47965 9.175 -2.68496
73 18 39 0.41 -2.91 7.72137 -1.93308
74 19 38 -0.82 -10.7122 -10.8925 -0.805412
75 19 39 0.41 -10.9343 -10.318 -0.0437214
76 19 39 0.41 -11.4697 -11.4633 -1.17212
77 20 38 -0.82 0.75482 6.23517 -10.6883
78 20 39 0.41 1.02656 7.2428 -10.9361
79 20 39 0.41 1.38993 5.6894 -11.2754
80 21 38 -0.82 -9.89254 6.28252 10.0668
81 21 39 0.41 -9.39185 7.1217 9.65312
82 21 39 0.41 -10.6268 6.6783 10.6485
83 22 38 -0.82 -12.0258 4.08151 -11.7937
84 22 39 0.41 -11.0472 3.84911 -11.792
85 22 39 0.41 11.6838 3.75345 11.6249
86 23 38 -0.82 -2.3085 -2.74499 4.88922
87 23 39 0.41 -1.47125 -2.69052 5.44537
88 23 39 0.41 -2.37599 -1.99522 4.22423
89 24 38 -0.82 10.8381 6.51151 -7.06462
90 24 39 0.41 10.1469 7.2509 -7.17634
91 24 39 0.41 10.965 5.95326 -7.92889
92 25 38 -0.82 -11.6031 -6.39243 -5.76478
93 25 39 0.41 11.9461 -5.90788 -5.20796
94 25 39 0.41 -10.689 -5.94579 -5.56031
95 26 38 -0.82 5.45824 -8.1456 -1.97522
96 26 39 0.41 6.39313 -8.19132 -1.65253
97 26 39 0.41 4.99684 -9.07127 -1.93762
98 27 38 -0.82 0.419298 2.00845 -9.83127
99 27 39 0.41 1.17045 1.96188 -10.5622
100 27 39 0.41 0.016478 1.06597 -9.7833
101 28 38 -0.82 -3.49618 4.67975 1.04791
102 28 39 0.41 -3.80662 5.23316 1.86393
103 28 39 0.41 -3.93116 3.75705 1.19521
104 29 38 -0.82 -0.482769 -11.201 -0.940353
105 29 39 0.41 -0.307852 -11.1592 -1.92997
106 29 39 0.41 0.236924 -11.8436 -0.643522
107 30 38 -0.82 -10.773 0.806622 -0.291918
108 30 39 0.41 -10.6552 1.69273 0.152788
109 30 39 0.41 -11.7638 0.364933 -0.382334
110 31 38 -0.82 -11.0408 -4.87216 -10.2867
111 31 39 0.41 -10.8708 -4.8825 -11.3154
112 31 39 0.41 -10.6212 -5.60906 -9.76165
113 32 38 -0.82 -11.1832 3.33898 -8.0984
114 32 39 0.41 -10.8792 3.3129 -7.1285
115 32 39 0.41 -11.7144 4.17721 -8.25288
116 33 38 -0.82 -4.13212 3.35342 -9.66087
117 33 39 0.41 -4.79316 3.71743 -10.3119
118 33 39 0.41 -3.18963 3.74568 -10.0189
119 34 38 -0.82 2.85947 0.476391 -6.2214
120 34 39 0.41 2.12323 1.19995 -6.41688
121 34 39 0.41 3.72917 0.866287 -5.8532
122 35 38 -0.82 -7.74203 5.37123 3.21692
123 35 39 0.41 -7.94536 6.33759 2.86134
124 35 39 0.41 -8.35114 5.27813 4.07313
125 36 38 -0.82 -3.89659 0.55194 0.0873893
126 36 39 0.41 -4.04208 -0.382078 0.579791
127 36 39 0.41 -3.18825 0.319737 -0.638517
128 37 38 -0.82 -7.49035 7.11346 7.12714
129 37 39 0.41 -8.06663 7.71312 7.67358
130 37 39 0.41 -6.84454 6.58274 7.80865
131 38 38 -0.82 8.50559 0.503021 -5.46423
132 38 39 0.41 9.14888 0.127442 -4.72166
133 38 39 0.41 8.69685 -0.0334226 -6.31782
134 39 38 -0.82 -3.28472 8.80961 3.99628
135 39 39 0.41 -3.8971 8.22136 4.59928
136 39 39 0.41 -2.52189 8.2051 3.68835
137 40 38 -0.82 0.0401772 -3.89364 -10.5388
138 40 39 0.41 -0.573407 -3.19101 -10.8617
139 40 39 0.41 0.118777 -3.75841 -9.50788
140 41 38 -0.82 9.95792 -6.31372 -10.6724
141 41 39 0.41 10.8185 -6.15358 -10.1315
142 41 39 0.41 9.17462 -6.00253 -10.1268
143 42 38 -0.82 -10.5618 5.33763 -3.54846
144 42 39 0.41 -11.0623 5.85989 -4.25325
145 42 39 0.41 -9.69732 5.85863 -3.22741
146 43 38 -0.82 -9.19253 -1.43095 -11.6362
147 43 39 0.41 -8.93694 -2.20963 11.9938
148 43 39 0.41 -8.59849 -1.39669 -10.8161
149 44 38 -0.82 -3.38517 -4.91215 -11.1077
150 44 39 0.41 -3.44737 -4.86185 -10.0662
151 44 39 0.41 -2.38547 -5.22738 -11.3328
152 45 38 -0.82 -9.16995 -4.62865 -7.50186
153 45 39 0.41 -9.22717 -5.04222 -6.58222
154 45 39 0.41 -10.014 -4.10818 -7.65972
155 46 38 -0.82 -4.18899 -5.7117 -2.37494
156 46 39 0.41 -3.53544 -5.27298 -2.97239
157 46 39 0.41 -3.91656 -5.49756 -1.41851
158 47 38 -0.82 4.58864 -7.74932 -7.3078
159 47 39 0.41 5.03352 -8.07267 -6.40102
160 47 39 0.41 3.54985 -7.83332 -7.34596
161 48 38 -0.82 4.41931 9.97429 -5.58311
162 48 39 0.41 4.06691 9.9279 -4.63558
163 48 39 0.41 4.77933 10.9274 -5.62069
164 49 38 -0.82 2.88051 6.42058 2.07605
165 49 39 0.41 3.73564 6.74228 1.59947
166 49 39 0.41 2.81451 6.88863 2.99547
167 50 38 -0.82 -9.27891 3.01854 -11.9714
168 50 39 0.41 -9.57594 2.08674 11.911
169 50 39 0.41 -9.24634 2.93058 -10.9237
170 51 38 -0.82 -7.27109 -2.46302 1.56952
171 51 39 0.41 -7.74345 -3.09207 2.15025
172 51 39 0.41 -7.92994 -1.73831 1.28656
173 52 38 -0.82 10.89 2.49886 -2.52865
174 52 39 0.41 10.2852 2.76664 -3.39028
175 52 39 0.41 11.5088 3.2493 -2.23422
176 53 38 -0.82 4.48151 -8.79278 9.83265
177 53 39 0.41 4.49606 -9.20525 8.91164
178 53 39 0.41 4.71729 -9.51472 10.5629
179 54 38 -0.82 1.21636 10.0677 11.4197
180 54 39 0.41 1.1555 9.54821 10.5385
181 54 39 0.41 1.47459 9.46473 -12.0179
182 55 38 -0.82 7.78077 7.94044 -6.90619
183 55 39 0.41 7.66443 7.50336 -6.00695
184 55 39 0.41 6.91462 8.25796 -7.20813
185 56 38 -0.82 -1.03548 7.28605 3.36156
186 56 39 0.41 -0.314515 8.03162 3.62272
187 56 39 0.41 -0.74295 6.85628 2.48823
188 57 38 -0.82 2.72259 -4.82326 -9.08359
189 57 39 0.41 2.21566 -5.7177 -9.05374
190 57 39 0.41 3.29233 -4.60456 -9.90483
191 58 38 -0.82 -7.52443 0.0797455 -9.22772
192 58 39 0.41 -8.31068 0.686087 -9.53299
193 58 39 0.41 -7.75131 0.0641406 -8.18827
194 59 38 -0.82 11.4489 3.77864 7.50334
195 59 39 0.41 11.5676 3.05145 6.80245
196 59 39 0.41 11.9166 4.63634 7.20034
197 60 38 -0.82 -8.09496 -0.0125881 -6.66468
198 60 39 0.41 -7.58525 0.347311 -5.84859
199 60 39 0.41 -9.00047 -0.406204 -6.291
200 61 38 -0.82 1.08958 8.21508 8.89856
201 61 39 0.41 0.740216 8.69257 8.08984
202 61 39 0.41 0.323857 7.8482 9.47818
203 62 38 -0.82 -7.0551 0.673847 -4.31959
204 62 39 0.41 -7.54007 0.659798 -3.43805
205 62 39 0.41 -6.39433 1.46584 -4.38653
206 63 38 -0.82 5.09898 -0.910033 -9.10256
207 63 39 0.41 5.13037 -0.166947 -9.79631
208 63 39 0.41 5.99813 -1.02718 -8.64575
209 64 38 -0.82 11.3319 7.85928 7.38312
210 64 39 0.41 11.6573 8.69533 6.86726
211 64 39 0.41 10.5804 7.40167 6.80881
212 65 38 -0.82 5.57377 -10.9563 11.2111
213 65 39 0.41 5.00254 -11.4946 10.5369
214 65 39 0.41 5.0634 -10.7868 12.0933
215 66 38 -0.82 4.99117 -4.77259 4.05605
216 66 39 0.41 3.95448 -4.66651 3.84965
217 66 39 0.41 5.38217 -4.43491 4.97858
218 67 38 -0.82 6.07338 8.01211 -1.80588
219 67 39 0.41 6.34614 8.34138 -0.822414
220 67 39 0.41 5.33151 7.31676 -1.78339
221 68 38 -0.82 -5.42721 -1.38993 7.1837
222 68 39 0.41 -5.44284 -1.59318 6.16785
223 68 39 0.41 -5.25192 -2.15951 7.79327
224 69 38 -0.82 11.6923 1.83314 5.55564
225 69 39 0.41 11.472 0.864427 5.80079
226 69 39 0.41 -11.7022 1.76375 5.01684
227 70 38 -0.82 7.22775 0.222376 -1.89958
228 70 39 0.41 6.86079 -0.548795 -1.39231
229 70 39 0.41 6.65359 0.310548 -2.77259
230 71 38 -0.82 -6.2006 -4.41772 0.13823
231 71 39 0.41 -6.31541 -5.08967 0.845472
232 71 39 0.41 -6.61877 -3.62707 0.638842
233 72 38 -0.82 0.427763 9.86502 -1.46276
234 72 39 0.41 -0.405915 9.53983 -0.972427
235 72 39 0.41 1.1862 9.25186 -1.13875
236 73 38 -0.82 -6.88038 -9.20231 12.0846
237 73 39 0.41 -7.34475 -9.87055 11.4332
238 73 39 0.41 -6.50329 -8.4557 11.5278
239 74 38 -0.82 -3.66276 -7.982 11.3842
240 74 39 0.41 -2.81882 -7.39079 11.3976
241 74 39 0.41 -3.9703 -8.01129 -11.9054
242 75 38 -0.82 3.8804 -8.97754 4.29307
243 75 39 0.41 3.17741 -8.25882 4.34741
244 75 39 0.41 4.4793 -8.78192 3.42795
245 76 38 -0.82 -9.27461 -11.4503 -10.6413
246 76 39 0.41 -9.99864 -10.8451 -10.3081
247 76 39 0.41 -8.59169 -11.6508 -9.87355
248 77 38 -0.82 4.41038 -4.77863 0.560597
249 77 39 0.41 3.46581 -5.15274 0.330868
250 77 39 0.41 4.73027 -4.26931 -0.285581
251 78 38 -0.82 -2.8933 5.20659 8.95361
252 78 39 0.41 -3.65056 5.1006 8.26943
253 78 39 0.41 -2.06284 4.97784 8.39301
254 79 38 -0.82 -6.37034 -6.45235 2.07584
255 79 39 0.41 -6.28848 -6.23564 3.03435
256 79 39 0.41 -5.67424 -7.12001 1.85454
257 80 38 -0.82 10.5963 -11.9393 -9.17936
258 80 39 0.41 10.177 -11.6453 -10.0835
259 80 39 0.41 10.947 11.3537 -9.22728
260 81 38 -0.82 2.02607 8.68131 -10.5939
261 81 39 0.41 1.63087 9.24944 -9.8681
262 81 39 0.41 3.03028 8.94404 -10.6211
263 82 38 -0.82 5.47726 -9.62225 -9.31862
264 82 39 0.41 5.09015 -9.142 -8.52139
265 82 39 0.41 4.6849 -9.98682 -9.8611
266 83 38 -0.82 3.61845 -10.3249 -11.3244
267 83 39 0.41 3.32351 -9.41105 -11.0001
268 83 39 0.41 2.85824 -10.9063 -10.9551
269 84 38 -0.82 11.3686 -10.8927 7.6412
270 84 39 0.41 11.3914 -9.99558 8.08092
271 84 39 0.41 11.4845 -10.7047 6.63768
272 85 38 -0.82 5.9696 -8.40018 -5.03681
273 85 39 0.41 6.79237 -7.87107 -5.3714
274 85 39 0.41 5.85527 -8.33631 -4.03437
275 86 38 -0.82 10.6404 11.3373 -4.53568
276 86 39 0.41 10.286 11.2554 -3.55482
277 86 39 0.41 9.93498 10.9455 -5.19306
278 87 38 -0.82 -4.37198 -4.37961 6.34301
279 87 39 0.41 -3.79128 -3.84201 5.68321
280 87 39 0.41 -4.08231 -4.25169 7.31044
281 88 38 -0.82 -7.58382 4.34639 -8.52083
282 88 39 0.41 -7.80708 5.24585 -8.92667
283 88 39 0.41 -7.37759 4.65337 -7.54399
284 89 38 -0.82 -2.37057 -10.3036 10.859
285 89 39 0.41 -2.84292 -9.37756 10.9156
286 89 39 0.41 -2.83719 -10.8916 10.1715
287 90 38 -0.82 -7.91939 3.35705 1.49376
288 90 39 0.41 -7.22471 2.72159 1.88279
289 90 39 0.41 -7.86179 4.20407 2.09597
290 91 38 -0.82 -2.3422 -5.23724 -0.107207
291 91 39 0.41 -1.37071 -5.30763 -0.431885
292 91 39 0.41 -2.22811 -4.56736 0.697425
293 92 38 -0.82 -3.92289 -1.96468 -9.26835
294 92 39 0.41 -4.65912 -2.26297 -9.8816
295 92 39 0.41 -4.19322 -1.01892 -8.91485
296 93 38 -0.82 -5.34979 7.70259 5.37152
297 93 39 0.41 -5.98056 7.53044 6.14121
298 93 39 0.41 -5.74671 8.59233 5.06881
299 94 38 -0.82 -2.78025 -11.8095 -7.75087
300 94 39 0.41 -3.27525 -11.2162 -7.0077
301 94 39 0.41 -2.7302 11.4979 -7.32583
302 95 38 -0.82 -10.0926 -10.7377 2.72434
303 95 39 0.41 -10.5687 -9.95751 3.11575
304 95 39 0.41 -10.0667 -11.4603 3.38528
305 96 38 -0.82 11.2915 8.47825 1.77925
306 96 39 0.41 11.385 7.72811 1.08911
307 96 39 0.41 10.5517 9.13014 1.47072
308 97 38 -0.82 -1.42874 -6.60536 12.009
309 97 39 0.41 -0.934697 -6.80434 11.0864
310 97 39 0.41 -1.07857 -7.17351 -11.4558
311 98 38 -0.82 5.01299 3.12177 -1.89013
312 98 39 0.41 4.11981 2.93797 -2.32571
313 98 39 0.41 5.0571 2.37313 -1.22172
314 99 38 -0.82 -6.09276 10.962 0.783747
315 99 39 0.41 -5.59871 11.7193 1.25758
316 99 39 0.41 -7.12607 11.1889 0.718537
317 100 38 -0.82 -2.41107 6.89148 -10.4464
318 100 39 0.41 -1.87348 6.92617 -9.56435
319 100 39 0.41 -1.86773 6.34977 -11.1468
320 101 38 -0.82 4.20823 5.79459 -1.77732
321 101 39 0.41 4.86302 4.95231 -1.91496
322 101 39 0.41 3.63529 5.904 -2.59604
323 102 38 -0.82 9.14611 -8.59037 -8.63926
324 102 39 0.41 9.42435 -7.73721 -9.11398
325 102 39 0.41 9.83761 -9.19739 -8.11546
326 103 38 -0.82 -11.6339 9.64438 8.90926
327 103 39 0.41 11.9091 10.3653 9.17313
328 103 39 0.41 12.0073 8.94005 8.5141
329 104 38 -0.82 -1.57281 -8.11883 7.35283
330 104 39 0.41 -1.70551 -7.18053 6.90209
331 104 39 0.41 -2.41992 -8.48394 7.70696
332 105 38 -0.82 7.78377 6.18016 -4.51697
333 105 39 0.41 7.57652 5.40481 -3.87849
334 105 39 0.41 8.55073 6.80061 -4.1099
335 106 38 -0.82 5.31781 -3.89477 6.52226
336 106 39 0.41 6.24425 -3.48701 6.53072
337 106 39 0.41 5.35433 -4.81474 6.96444
338 107 38 -0.82 1.3477 4.26619 1.30873
339 107 39 0.41 2.0188 5.05059 1.54197
340 107 39 0.41 1.76062 3.33702 1.51828
341 108 38 -0.82 8.10839 -5.39379 -8.90488
342 108 39 0.41 7.4846 -4.82782 -9.48235
343 108 39 0.41 7.49437 -5.46228 -8.11644
344 109 38 -0.82 -5.29965 8.47122 -3.20141
345 109 39 0.41 -5.66869 7.66629 -3.63054
346 109 39 0.41 -6.15764 9.05208 -2.98968
347 110 38 -0.82 -6.93705 -9.16879 -7.66765
348 110 39 0.41 -6.76082 -9.62673 -6.73931
349 110 39 0.41 -6.81562 -9.82397 -8.41491
350 111 38 -0.82 2.15716 -0.231873 -3.57782
351 111 39 0.41 1.43813 -0.915836 -3.26424
352 111 39 0.41 2.30131 -0.142137 -4.6179
353 112 38 -0.82 11.0944 -0.507496 1.56378
354 112 39 0.41 10.6534 0.441975 1.57785
355 112 39 0.41 10.8707 -0.869301 0.608161
356 113 38 -0.82 9.60537 8.66025 4.40457
357 113 39 0.41 10.2527 8.79261 3.61601
358 113 39 0.41 9.43354 9.52543 4.84315
359 114 38 -0.82 6.4558 0.473269 7.14797
360 114 39 0.41 6.08066 0.473383 8.13482
361 114 39 0.41 6.51558 1.45458 6.93877
362 115 38 -0.82 3.25089 9.84837 -3.1864
363 115 39 0.41 2.28256 9.7123 -3.44614
364 115 39 0.41 3.22704 9.93034 -2.16725
365 116 38 -0.82 -2.99395 -5.41271 -8.29653
366 116 39 0.41 -3.80146 -6.02919 -8.16789
367 116 39 0.41 -2.78319 -5.00495 -7.4025
368 117 38 -0.82 -6.24789 3.29681 8.15249
369 117 39 0.41 -6.86314 3.47844 8.92628
370 117 39 0.41 -5.75755 4.14195 7.79231
371 118 38 -0.82 -6.26316 -9.94155 -4.37859
372 118 39 0.41 -7.20244 -10.3211 -4.23155
373 118 39 0.41 -6.01583 -9.23089 -3.69739
374 119 38 -0.82 2.66522 7.54861 6.33829
375 119 39 0.41 3.71452 7.46529 6.47107
376 272 39 0.41 -11.5311 -8.042 -5.50994
377 120 38 -0.82 -10.3025 1.95537 4.08128
378 120 39 0.41 -10.1875 2.95199 4.26518
379 120 39 0.41 -9.33123 1.58026 3.94879
380 121 38 -0.82 4.47423 9.95554 -8.49984
381 121 39 0.41 3.83966 10.3144 -7.81191
382 121 39 0.41 5.01731 9.25466 -8.05838
383 122 38 -0.82 8.04074 -11.1043 4.28952
384 122 39 0.41 7.04683 -11.256 4.47227
385 122 39 0.41 8.14319 -10.0805 4.56025
386 123 38 -0.82 -9.11603 8.29307 5.31501
387 123 39 0.41 -8.73942 8.28571 4.38646
388 123 39 0.41 -8.57671 7.70359 5.92834
389 124 38 -0.82 -10.7242 3.37014 1.12206
390 124 39 0.41 -11.2091 3.57413 1.98686
391 124 39 0.41 -9.83738 2.93638 1.39507
392 125 38 -0.82 6.54088 -3.49045 -10.0153
393 125 39 0.41 5.55245 -3.31023 -10.1261
394 125 39 0.41 6.74525 -2.91881 -9.20469
395 126 38 -0.82 -1.55622 10.8855 -11.8749
396 126 39 0.41 -2.17783 10.9674 11.5124
397 126 39 0.41 -0.608292 10.6236 12.0529
398 127 38 -0.82 11.0428 3.06005 10.2186
399 127 39 0.41 10.1573 2.78534 9.94173
400 127 39 0.41 11.6854 3.37465 9.5101
401 128 38 -0.82 -1.65227 2.26896 -6.48038
402 128 39 0.41 -2.47738 2.78718 -6.74435
403 128 39 0.41 -1.88387 1.27223 -6.69421
404 129 38 -0.82 -1.37395 2.50631 11.3867
405 129 39 0.41 -1.69789 2.00197 -12.0259
406 129 39 0.41 -1.46396 1.83466 10.6486
407 130 38 -0.82 -1.51029 4.83122 4.67529
408 130 39 0.41 -1.07673 5.65261 4.30311
409 130 39 0.41 -0.730276 4.22562 4.90883
410 131 38 -0.82 8.73475 4.46202 -6.90881
411 131 39 0.41 8.51965 5.30297 -6.33255
412 131 39 0.41 9.5638 4.64633 -7.46586
413 132 38 -0.82 -8.86544 -7.53015 -10.8533
414 132 39 0.41 -8.04432 -8.18154 -11.2624
415 132 39 0.41 -9.66936 -7.63223 -11.5513
416 133 38 -0.82 -1.00023 -11.4385 3.40481
417 133 39 0.41 -1.35852 -11.8451 2.47665
418 133 39 0.41 -1.59872 -11.8892 4.11035
419 134 38 -0.82 -4.14311 6.64044 -5.98611
420 134 39 0.41 -3.42561 7.04643 -5.2953
421 134 39 0.41 -4.20179 7.29282 -6.7809
422 135 38 -0.82 11.2477 -9.76643 -7.81319
423 135 39 0.41 11.8572 -9.52934 -6.90968
424 135 39 0.41 10.9575 -10.7439 -8.00775
425 136 38 -0.82 3.06594 -6.03525 6.00762
426 136 39 0.41 2.80297 -5.14442 5.54338
427 136 39 0.41 3.99527 -6.11534 6.28936
428 137 38 -0.82 1.27287 -8.73917 -0.401233
429 137 39 0.41 1.3119 -8.43236 0.581766
430 137 39 0.41 1.2186 -9.7951 -0.299229
431 138 38 -0.82 5.05497 7.32696 -4.95695
432 138 39 0.41 5.03453 8.33037 -4.90461
433 138 39 0.41 5.96228 7.03294 -4.51376
434 139 38 -0.82 6.90059 -1.86735 1.02101
435 139 39 0.41 7.66506 -2.36935 0.561219
436 139 39 0.41 6.08081 -2.3371 0.53489
437 140 38 -0.82 -0.866479 -4.11005 7.28677
438 140 39 0.41 -1.48544 -4.74022 7.71164
439 140 39 0.41 0.0320884 -4.53229 7.27766
440 141 38 -0.82 6.00666 -6.72612 11.0062
441 141 39 0.41 6.16563 -6.94858 11.979
442 141 39 0.41 5.43141 -7.5148 10.597
443 142 38 -0.82 -7.21174 -8.83965 5.53307
444 142 39 0.41 -6.89382 -8.49072 6.47484
445 142 39 0.41 -7.74562 -9.67165 5.51766
446 143 38 -0.82 8.37709 -7.26368 -6.19731
447 143 39 0.41 9.09638 -7.78619 -5.62128
448 143 39 0.41 8.35582 -7.81437 -7.0289
449 144 38 -0.82 -5.78443 8.83261 2.3271
450 144 39 0.41 -5.7113 9.62175 1.6311
451 144 39 0.41 -4.82596 8.64515 2.57159
452 145 38 -0.82 -5.55312 -3.55203 9.06092
453 145 39 0.41 -6.52666 -3.59025 9.5266
454 145 39 0.41 -4.94675 -3.66419 9.89477
455 146 38 -0.82 10.1679 6.51693 9.47646
456 146 39 0.41 9.16651 6.52693 9.30805
457 146 39 0.41 10.7509 6.81856 8.66745
458 147 38 -0.82 8.61019 -4.49611 -5.44806
459 147 39 0.41 7.97587 -3.88163 -5.97075
460 147 39 0.41 8.4769 -5.50326 -5.62898
461 148 38 -0.82 -8.96388 -6.57881 1.23864
462 148 39 0.41 -8.10329 -6.15715 1.55128
463 148 39 0.41 -9.27644 -6.12841 0.40815
464 149 38 -0.82 -4.28054 8.64783 8.84639
465 149 39 0.41 -4.68532 7.69469 8.90538
466 149 39 0.41 -3.65336 8.55249 8.00625
467 150 38 -0.82 3.93268 -3.13466 8.54636
468 150 39 0.41 4.54805 -3.53046 9.3166
469 150 39 0.41 4.34973 -3.39062 7.66269
470 151 38 -0.82 0.55375 -9.91105 6.69221
471 151 39 0.41 -0.117408 -9.19975 6.98846
472 151 39 0.41 0.491142 -9.63431 5.68674
473 152 38 -0.82 -3.64263 2.62905 -2.50844
474 152 39 0.41 -3.56623 2.50777 -1.50679
475 152 39 0.41 -2.67073 2.52897 -2.99904
476 153 38 -0.82 7.28096 7.2789 4.86584
477 153 39 0.41 8.18644 7.78501 4.68772
478 153 39 0.41 7.5856 6.28952 4.89123
479 154 38 -0.82 0.084103 -6.05501 -1.49745
480 154 39 0.41 0.322699 -7.0343 -1.35467
481 154 39 0.41 -0.402977 -5.79334 -2.34527
482 155 38 -0.82 -6.06931 -10.41 -10.0454
483 155 39 0.41 -5.88836 -11.2803 -10.4992
484 155 39 0.41 -6.31392 -9.73806 -10.7664
485 156 38 -0.82 3.5355 4.80069 -8.01677
486 156 39 0.41 3.57349 4.04859 -8.72479
487 156 39 0.41 2.59729 5.30078 -8.09677
488 157 38 -0.82 -5.60015 4.09101 11.984
489 157 39 0.41 -6.28572 4.17159 11.2476
490 157 39 0.41 -5.3406 5.06138 -12.0392
491 158 38 -0.82 -0.711273 4.62951 7.24404
492 158 39 0.41 -1.33575 4.68196 6.45497
493 158 39 0.41 -0.108063 3.81094 7.05896
494 159 38 -0.82 -0.564001 -8.40523 -10.2692
495 159 39 0.41 -1.22444 -9.24667 -10.168
496 159 39 0.41 -0.481817 -7.99793 -9.32232
497 160 38 -0.82 -2.08416 -0.806522 2.27268
498 160 39 0.41 -1.86989 0.0334769 1.68207
499 160 39 0.41 -3.06975 -1.15937 2.06778
500 161 38 -0.82 11.226 -4.8839 -4.14656
501 161 39 0.41 10.4474 -4.64495 -4.7539
502 161 39 0.41 11.5956 -3.98489 -3.70225
503 162 38 -0.82 -6.02483 4.96483 -2.55815
504 162 39 0.41 -5.91807 4.11258 -3.13444
505 162 39 0.41 -5.14168 5.51878 -2.45314
506 163 38 -0.82 -8.27985 -2.78069 -4.90317
507 163 39 0.41 -7.85816 -2.43272 -4.08445
508 163 39 0.41 -9.09432 -2.33902 -5.275
509 164 38 -0.82 2.34897 6.78712 -4.60241
510 164 39 0.41 3.39709 6.88058 -4.62017
511 164 39 0.41 2.02373 7.7457 -4.57767
512 165 38 -0.82 -10.621 -0.427319 -8.36858
513 165 39 0.41 -11.4736 0.10557 -8.23256
514 165 39 0.41 -9.78837 0.16377 -8.43407
515 166 38 -0.82 9.78611 -6.60948 4.52573
516 166 39 0.41 10.3132 -5.98102 5.23165
517 166 39 0.41 10.4399 -7.40301 4.31654
518 167 38 -0.82 -7.75361 4.503 10.2831
519 167 39 0.41 -7.97371 4.04525 11.1766
520 167 39 0.41 -8.68746 4.9444 10.0562
521 168 38 -0.82 -1.40938 1.4388 -3.81484
522 168 39 0.41 -1.73024 1.94874 -4.69393
523 168 39 0.41 -0.47007 1.11391 -4.12364
524 169 38 -0.82 -11.764 4.38641 -1.27999
525 169 39 0.41 -11.058 4.01561 -0.711719
526 169 39 0.41 -11.3442 4.8883 -2.10624
527 170 38 -0.82 1.90984 -10.9152 -3.71302
528 170 39 0.41 2.56267 -11.2697 -2.9748
529 170 39 0.41 1.29878 -11.5591 -4.17668
530 171 38 -0.82 -0.374508 0.639112 0.38802
531 171 39 0.41 -0.328551 1.56969 0.801725
532 171 39 0.41 0.545557 0.214686 0.559765
533 172 38 -0.82 3.14321 4.4583 6.03996
534 172 39 0.41 3.12117 4.26269 7.04438
535 172 39 0.41 2.69189 5.37906 6.06134
536 173 38 -0.82 11.6524 -11.9667 1.54385
537 173 39 0.41 10.8048 12.0264 2.05076
538 173 39 0.41 -11.898 -11.4329 2.08586
539 174 38 -0.82 9.6596 -9.50977 -5.00782
540 174 39 0.41 9.74499 -10.3819 -5.52198
541 174 39 0.41 9.62255 -9.72902 -3.99393
542 175 38 -0.82 -11.5344 8.98955 5.39792
543 175 39 0.41 -10.5101 8.86291 5.4678
544 175 39 0.41 -11.8967 8.43046 4.70852
545 176 38 -0.82 -10.7557 0.772128 11.4635
546 176 39 0.41 -11.7846 0.677968 11.8161
547 176 39 0.41 -10.233 0.0653901 12.0516
548 177 38 -0.82 -6.44846 0.354048 -0.733323
549 177 39 0.41 -6.78666 1.28555 -1.03922
550 177 39 0.41 -5.47969 0.418883 -0.29728
551 178 38 -0.82 -3.79426 11.1343 -3.97545
552 178 39 0.41 -4.39887 11.4924 -3.23904
553 178 39 0.41 -4.26121 10.7664 -4.83605
554 179 38 -0.82 8.23419 -7.96105 -1.72267
555 179 39 0.41 8.64351 -8.85441 -1.94406
556 179 39 0.41 8.97638 -7.24334 -1.62573
557 180 38 -0.82 -3.04574 -0.477704 -6.40625
558 180 39 0.41 -3.5916 -0.225892 -7.29703
559 180 39 0.41 -3.69311 -0.47143 -5.57409
560 181 38 -0.82 -3.34925 6.18768 -1.18512
561 181 39 0.41 -2.52759 5.66314 -1.51489
562 181 39 0.41 -3.86095 5.55461 -0.522722
563 182 38 -0.82 1.12848 0.13624 6.06511
564 182 39 0.41 0.800082 -0.647838 6.63286
565 182 39 0.41 0.863275 -0.104916 5.07619
566 183 38 -0.82 3.63351 -0.578273 -1.27713
567 183 39 0.41 3.13056 -0.206419 -2.04021
568 183 39 0.41 3.63586 -1.56667 -1.38122
569 184 38 -0.82 -9.80714 -10.8966 -6.86924
570 184 39 0.41 -10.6336 -10.4897 -6.41927
571 184 39 0.41 -9.53191 -10.5899 -7.82682
572 185 38 -0.82 5.61918 -11.0555 -1.47259
573 185 39 0.41 6.28356 -11.4814 -2.08782
574 185 39 0.41 6.12826 -10.6293 -0.716286
575 186 38 -0.82 -4.4621 -11.2926 1.9598
576 186 39 0.41 -3.67515 -11.8311 1.52038
577 186 39 0.41 -4.38752 -11.2053 2.99506
578 187 38 -0.82 -7.89845 -9.58225 0.485744
579 187 39 0.41 -8.13276 -8.95956 1.28161
580 187 39 0.41 -8.30127 -10.5555 0.742241
581 188 38 -0.82 0.853895 -2.64305 -0.181486
582 188 39 0.41 0.49495 -2.27841 -1.07828
583 188 39 0.41 1.38904 -3.48808 -0.527501
584 189 38 -0.82 -0.479336 8.43527 -8.02226
585 189 39 0.41 0.100983 9.16798 -8.40708
586 189 39 0.41 -1.32015 8.9011 -7.56918
587 190 38 -0.82 -8.3329 8.05738 2.41625
588 190 39 0.41 -7.38383 8.41896 2.13546
589 190 39 0.41 -9.02842 8.83353 2.26605
590 191 38 -0.82 7.80084 4.68041 4.37783
591 191 39 0.41 8.48964 4.02533 4.00784
592 191 39 0.41 7.0939 4.89925 3.71878
593 192 38 -0.82 5.28359 3.1892 3.43604
594 192 39 0.41 4.29781 3.29347 3.51794
595 192 39 0.41 5.34524 2.11902 3.37435
596 193 38 -0.82 5.36264 8.79102 3.06492
597 193 39 0.41 5.91124 8.16372 3.65302
598 193 39 0.41 4.46798 8.97529 3.59538
599 194 38 -0.82 11.6196 5.32118 3.61417
600 194 39 0.41 11.4864 6.07434 2.96917
601 194 39 0.41 11.0062 4.53073 3.40796
602 195 38 -0.82 -2.52188 -2.15409 -3.38858
603 195 39 0.41 -2.57542 -1.27719 -2.94926
604 195 39 0.41 -3.38701 -2.08883 -3.94062
605 196 38 -0.82 0.923067 9.20876 -4.56656
606 196 39 0.41 0.0221743 8.69244 -4.64921
607 196 39 0.41 0.874468 10.1085 -5.18865
608 197 38 -0.82 10.9436 -8.81227 1.20321
609 197 39 0.41 11.1749 -8.7677 0.176544
610 197 39 0.41 10.0905 -8.19883 1.32772
611 198 38 -0.82 10.7884 -0.645258 -12.0977
612 198 39 0.41 10.6576 -0.677605 11.1159
613 198 39 0.41 11.0206 -1.57431 -11.7197
614 199 38 -0.82 -1.57335 -11.2694 -9.94891
615 199 39 0.41 -2.19944 -11.4538 -9.09101
616 199 39 0.41 -1.85679 -11.9015 -10.7145
617 200 38 -0.82 5.62232 7.72336 6.66423
618 200 39 0.41 6.27626 7.49521 5.83213
619 200 39 0.41 5.61303 6.88513 7.31468
620 201 38 -0.82 7.29527 7.12237 11.9718
621 201 39 0.41 7.33582 8.10503 11.8813
622 201 39 0.41 7.01935 6.81981 -11.3273
623 202 38 -0.82 -4.46602 -5.98516 -5.35484
624 202 39 0.41 -4.87334 -5.12299 -4.95388
625 202 39 0.41 -3.47991 -6.09665 -5.11807
626 203 38 -0.82 -6.66669 -2.28775 -10.1712
627 203 39 0.41 -7.00486 -1.44506 -9.6951
628 203 39 0.41 -6.84463 -3.12751 -9.61237
629 204 38 -0.82 -11.7617 -2.289 -3.41904
630 204 39 0.41 -11.0913 -2.37235 -2.63589
631 204 39 0.41 -11.2652 -1.81111 -4.24097
632 205 38 -0.82 1.10189 6.10712 -7.85197
633 205 39 0.41 0.47635 6.82789 -7.49798
634 205 39 0.41 1.12443 6.26677 -8.90652
635 206 38 -0.82 -11.0355 11.623 4.7527
636 206 39 0.41 -11.7753 -11.8994 4.82827
637 206 39 0.41 -11.3783 10.6605 5.00868
638 207 38 -0.82 -11.0236 8.69926 -7.79754
639 207 39 0.41 -11.7126 9.16876 -8.40115
640 207 39 0.41 -11.0936 9.11804 -6.85271
641 208 38 -0.82 6.95704 -11.9833 -3.44984
642 208 39 0.41 7.14353 11.2446 -3.31954
643 208 39 0.41 6.39612 -11.8426 -4.35286
644 209 38 -0.82 8.11882 -3.11475 11.9835
645 209 39 0.41 7.51294 -3.11525 -11.4129
646 209 39 0.41 9.09359 -3.10238 -11.9166
647 210 38 -0.82 2.28438 -4.53062 -1.3135
648 210 39 0.41 1.55491 -5.26527 -1.45653
649 210 39 0.41 3.1255 -4.7564 -1.93325
650 211 38 -0.82 -1.13378 -8.48032 -3.28022
651 211 39 0.41 -1.85958 -8.51922 -2.54805
652 211 39 0.41 -0.226068 -8.74577 -2.93101
653 212 38 -0.82 -5.43465 -6.04544 4.54122
654 212 39 0.41 -4.53207 -6.25529 4.12194
655 212 39 0.41 -5.22808 -5.5884 5.40532
656 213 38 -0.82 7.43966 9.52596 -3.54556
657 213 39 0.41 6.89221 8.95886 -3.00646
658 213 39 0.41 8.24259 8.9708 -3.85568
659 214 38 -0.82 0.278153 -10.3925 11.4319
660 214 39 0.41 -0.747806 -10.3855 11.4238
661 214 39 0.41 0.529609 -9.45217 11.5708
662 215 38 -0.82 -1.5196 8.97667 0.271822
663 215 39 0.41 -2.33644 9.04996 -0.3615
664 215 39 0.41 -1.24146 8.00038 0.400724
665 216 38 -0.82 -5.60523 -2.96735 -7.20182
666 216 39 0.41 -4.77961 -2.62353 -7.64363
667 216 39 0.41 -5.9746 -3.72321 -7.71372
668 217 38 -0.82 9.94606 -1.13436 4.06526
669 217 39 0.41 10.3306 -1.01541 3.16133
670 217 39 0.41 9.0232 -0.860195 4.0675
671 218 38 -0.82 10.0233 -3.33831 -8.07417
672 218 39 0.41 9.76276 -4.30158 -8.13166
673 218 39 0.41 11.0187 -3.26006 -7.87305
674 219 38 -0.82 -8.05147 9.1176 11.0596
675 219 39 0.41 -7.2039 8.96393 11.6277
676 219 39 0.41 -8.67715 9.7151 11.6212
677 220 38 -0.82 3.47481 -1.3689 11.6214
678 220 39 0.41 4.0714 -2.14202 11.8467
679 220 39 0.41 3.33471 -1.48164 10.565
680 221 38 -0.82 -1.60614 0.617243 9.38719
681 221 39 0.41 -2.48958 0.365636 8.90126
682 221 39 0.41 -0.94894 1.14301 8.78501
683 222 38 -0.82 7.57322 6.03477 9.56041
684 222 39 0.41 6.71872 6.05627 9.00033
685 222 39 0.41 7.50746 6.38762 10.4905
686 223 38 -0.82 7.22857 0.524261 2.20559
687 223 39 0.41 6.85264 0.301268 3.18274
688 223 39 0.41 7.07932 -0.384176 1.73685
689 224 38 -0.82 -8.33244 -6.42809 5.25945
690 224 39 0.41 -7.77479 -7.3128 5.37291
691 224 39 0.41 -7.90789 -5.57486 5.64007
692 225 38 -0.82 -1.2123 -3.438 1.31093
693 225 39 0.41 -0.440752 -3.12247 0.641821
694 225 39 0.41 -1.59557 -2.64362 1.79285
695 226 38 -0.82 -5.32578 10.3389 -5.81441
696 226 39 0.41 -5.34076 9.31301 -5.63229
697 226 39 0.41 -6.28924 10.5623 -6.0339
698 227 38 -0.82 -9.0974 -10.987 6.34839
699 227 39 0.41 -9.6734 -11.6331 5.79133
700 227 39 0.41 -9.29638 -11.1766 7.38754
701 228 38 -0.82 -10.3777 9.6755 1.3581
702 228 39 0.41 -10.542 9.30796 0.426606
703 228 39 0.41 -11.3623 9.47042 1.72445
704 229 38 -0.82 8.95136 3.81536 8.20919
705 229 39 0.41 8.42454 4.31608 8.94754
706 229 39 0.41 9.99023 4.062 8.25564
707 230 38 -0.82 0.936701 10.6854 3.71492
708 230 39 0.41 0.100469 11.3398 3.85383
709 230 39 0.41 1.52317 11.0461 2.96454
710 231 38 -0.82 11.1291 11.9931 -1.05502
711 231 39 0.41 11.074 -12.0086 -0.0556673
712 231 39 0.41 10.7046 11.0421 -1.05452
713 232 38 -0.82 -2.11576 -8.6564 -5.94858
714 232 39 0.41 -2.94622 -9.13605 -5.62755
715 232 39 0.41 -1.60844 -8.48918 -5.03373
716 233 38 -0.82 0.811756 11.8026 7.57254
717 233 39 0.41 0.493982 -11.5569 7.17893
718 233 39 0.41 0.996625 12.0981 8.55397
719 234 38 -0.82 5.24137 -11.4887 4.47253
720 234 39 0.41 4.65421 12.1131 4.98498
721 234 39 0.41 4.60896 -10.6236 4.32732
722 235 38 -0.82 11.9597 6.69866 11.2974
723 235 39 0.41 12.0449 5.84583 11.8107
724 235 39 0.41 11.1453 6.60572 10.6375
725 236 38 -0.82 0.880526 10.7362 -8.7455