ITEM: TIMESTEP
545020
ITEM: NUMBER OF ATOMS
1429
ITEM: BOX BOUNDS pp pp pp
-12.1247 12.1247
-12.1247 12.1247
-12.1247 12.1247
ITEM: ATOMS id mol type q x y z
1 2 8 0.51 11.5656 -7.30449 8.72735
2 2 9 -0.51 11.6413 -8.49323 9.04478
3 3 10 -0.47 -11.6118 -6.74067 8.22536
4 3 11 0.31 -11.68 -5.82473 7.81053
5 3 15 -0.11 -10.3856 -7.42402 7.99697
6 3 6 0.09 -9.81515 -7.36004 8.96736
7 3 6 0.09 -10.6155 -8.37061 7.55959
8 3 6 0.09 -9.75843 -7.07243 7.19036
9 1 15 -0.27 7.93972 -9.48353 9.00191
10 1 6 0.09 7.13432 -9.99958 8.51897
11 1 6 0.09 7.6239 -9.30089 10.0966
12 1 6 0.09 8.80409 -10.2074 8.93538
13 1 8 0.51 8.43947 -8.23025 8.37469
14 1 9 -0.51 7.84043 -7.65747 7.50599
15 2 10 -0.47 9.6496 -7.78359 8.9114
16 2 11 0.31 9.98081 -8.29776 9.72316
17 2 3 0.07 10.278 -6.63129 8.62307
18 2 4 0.09 10.1265 -6.23419 7.62467
19 2 3 -0.18 10.0051 -5.50219 9.70185
20 2 6 0.09 8.92457 -5.30726 9.65346
21 2 6 0.09 10.1029 -5.7468 10.784
22 2 5 -0.21 10.8266 -4.1874 9.57996
23 2 6 0.09 10.6151 -3.50241 10.4366
24 2 6 0.09 11.8974 -4.40514 9.57715
25 2 36 0.75 10.5473 -3.22181 8.40511
26 2 37 -0.55 9.95459 -3.53982 7.38365
27 2 14 -0.61 10.9942 -2.01653 8.63242
28 4 38 -0.82 -4.51045 -1.69645 1.58019
29 4 39 0.41 -5.48932 -1.72142 1.70695
30 4 39 0.41 -4.45165 -2.36929 0.757982
31 257 39 0.41 -0.473476 10.8345 -2.61622
32 5 38 -0.82 8.55842 -12.0083 1.7767
33 5 39 0.41 8.51887 -11.7277 2.76424
34 5 39 0.41 8.41965 -11.177 1.17022
35 6 38 -0.82 -11.5086 -3.10202 -8.28939
36 6 39 0.41 -11.3133 -3.80485 -9.0523
37 6 39 0.41 -11.0419 -2.2312 -8.38403
38 7 38 -0.82 3.50056 -6.22094 -3.1625
39 7 39 0.41 2.77548 -6.92121 -3.23297
40 7 39 0.41 4.32607 -6.60178 -2.73176
41 8 38 -0.82 0.408054 -5.17766 2.64851
42 8 39 0.41 -0.186038 -4.70538 1.95744
43 8 39 0.41 -0.197661 -5.49103 3.44052
44 9 38 -0.82 5.9067 4.36536 1.11225
45 9 39 0.41 5.50751 3.85476 0.347226
46 9 39 0.41 5.50201 4.03905 2.01647
47 10 38 -0.82 3.50455 10.3565 -0.164214
48 10 39 0.41 3.5112 10.4454 0.864828
49 10 39 0.41 3.11472 9.42826 -0.459236
50 11 38 -0.82 -2.45938 9.80955 -6.66321
51 11 39 0.41 -3.42068 9.61685 -6.88263
52 11 39 0.41 -2.41608 9.69714 -5.67666
53 12 38 -0.82 10.1352 -8.83101 11.8843
54 12 39 0.41 10.139 -7.94709 -11.9278
55 12 39 0.41 9.28986 -9.348 -12.0688
56 13 38 -0.82 11.929 -8.63792 -1.3701
57 13 39 0.41 11.495 -7.74587 -1.77168
58 13 39 0.41 -12.0217 -9.26036 -2.16986
59 14 38 -0.82 -7.52905 2.74867 -1.12853
60 14 39 0.41 -7.59269 3.2027 -0.180531
61 14 39 0.41 -7.2477 3.53397 -1.75276
62 15 38 -0.82 -12.1196 7.07595 -4.75737
63 15 39 0.41 12.0441 8.06767 -4.60793
64 15 39 0.41 11.7899 6.72035 -5.66394
65 16 38 -0.82 -9.9051 -5.59536 -1.1765
66 16 39 0.41 -10.2559 -4.62458 -1.36826
67 16 39 0.41 -10.4103 -6.30009 -1.74519
68 17 38 -0.82 -7.96302 -0.499421 6.92104
69 17 39 0.41 -6.9658 -0.683629 6.81435
70 17 39 0.41 -8.11597 -0.0551498 7.81797
71 18 38 -0.82 -2.86184 8.72277 -2.05579
72 18 39 0.41 -3.68768 9.19778 -2.35693
73 18 39 0.41 -3.13179 7.80688 -1.55647
74 19 38 -0.82 -10.7122 -10.9348 -0.828026
75 19 39 0.41 -10.9222 -10.0269 -0.384876
76 19 39 0.41 -11.5401 -11.573 -0.896896
77 20 38 -0.82 0.791847 6.21903 -10.761
78 20 39 0.41 0.8476 7.26441 -10.8928
79 20 39 0.41 1.5839 5.83734 -11.3037
80 21 38 -0.82 -9.87672 6.24484 10.0761
81 21 39 0.41 -9.53526 7.1224 9.74808
82 21 39 0.41 -10.8695 6.41417 10.3562
83 22 38 -0.82 -11.9885 4.057 -11.9024
84 22 39 0.41 -11.0869 3.59049 -11.9767
85 22 39 0.41 11.6195 3.51808 11.7861
86 23 38 -0.82 -2.34976 -2.66926 4.9176
87 23 39 0.41 -1.4558 -2.64206 5.39483
88 23 39 0.41 -2.42734 -2.13982 4.02982
89 24 38 -0.82 10.7207 6.62972 -7.15201
90 24 39 0.41 9.81305 7.14409 -6.9457
91 24 39 0.41 10.9637 6.39965 -8.16523
92 25 38 -0.82 -11.6705 -6.35521 -5.83722
93 25 39 0.41 11.9387 -5.77952 -5.18546
94 25 39 0.41 -10.6759 -6.23425 -5.6536
95 26 38 -0.82 5.45663 -7.99389 -2.06733
96 26 39 0.41 6.39805 -7.67036 -1.84561
97 26 39 0.41 5.38195 -8.99567 -1.90749
98 27 38 -0.82 0.385641 1.83868 -9.73744
99 27 39 0.41 0.920607 1.83481 -10.6467
100 27 39 0.41 -0.237446 1.01425 -9.75239
101 28 38 -0.82 -3.49677 4.67789 1.15738
102 28 39 0.41 -3.9665 5.37365 1.84861
103 28 39 0.41 -3.82878 3.74913 1.41656
104 29 38 -0.82 -0.244686 -11.1194 -0.932824
105 29 39 0.41 -0.456109 -11.2893 -1.92167
106 29 39 0.41 0.606031 -11.7201 -0.769424
107 30 38 -0.82 -10.773 0.893536 -0.305403
108 30 39 0.41 -11.0694 1.87143 -0.185498
109 30 39 0.41 -11.3594 0.0970138 -0.181683
110 31 38 -0.82 -11.1465 -4.86634 -10.3434
111 31 39 0.41 -10.8836 -4.79984 -11.3499
112 31 39 0.41 -11.1351 -5.84808 -10.0155
113 32 38 -0.82 -11.181 3.30224 -8.11481
114 32 39 0.41 -10.9182 3.50922 -7.13988
115 32 39 0.41 -11.8729 3.97492 -8.41978
116 33 38 -0.82 -4.1272 3.34627 -9.60543
117 33 39 0.41 -4.64144 3.69614 -10.3818
118 33 39 0.41 -3.18305 3.72665 -9.72612
119 34 38 -0.82 2.86625 0.347219 -6.17838
120 34 39 0.41 2.05479 0.967415 -6.54221
121 34 39 0.41 3.7061 0.998087 -5.9334
122 35 38 -0.82 -7.66941 5.4711 3.25496
123 35 39 0.41 -7.77787 6.5145 3.00904
124 35 39 0.41 -8.34838 5.24336 4.00003
125 36 38 -0.82 -3.89493 0.55369 0.119001
126 36 39 0.41 -4.10942 -0.401367 0.559851
127 36 39 0.41 -3.26435 0.260213 -0.668745
128 37 38 -0.82 -7.51881 7.16615 7.14363
129 37 39 0.41 -8.11332 7.86148 7.60332
130 37 39 0.41 -6.80584 6.88138 7.88766
131 38 38 -0.82 8.65952 0.508946 -5.40738
132 38 39 0.41 9.25353 0.0666228 -4.62919
133 38 39 0.41 8.63898 -0.169766 -6.15348
134 39 38 -0.82 -3.31168 8.82667 3.95306
135 39 39 0.41 -3.95441 8.38039 4.66481
136 39 39 0.41 -2.57954 8.15325 3.6816
137 40 38 -0.82 -0.0235736 -3.78027 -10.5262
138 40 39 0.41 -0.207256 -2.88395 -10.9648
139 40 39 0.41 0.332841 -3.57782 -9.5694
140 41 38 -0.82 9.99943 -6.33248 -10.8382
141 41 39 0.41 10.8312 -6.08204 -10.2952
142 41 39 0.41 9.09985 -6.18672 -10.3302
143 42 38 -0.82 -10.5585 5.29812 -3.46598
144 42 39 0.41 -11.1434 6.10557 -3.71037
145 42 39 0.41 -9.6671 5.68567 -3.09744
146 43 38 -0.82 -9.16001 -1.38921 -11.5685
147 43 39 0.41 -8.66252 -2.13817 -12.0338
148 43 39 0.41 -8.70171 -1.23747 -10.6433
149 44 38 -0.82 -3.31138 -4.97806 -11.1597
150 44 39 0.41 -2.96651 -4.88555 -10.2274
151 44 39 0.41 -2.63078 -5.55662 -11.7015
152 45 38 -0.82 -9.24391 -4.77187 -7.6012
153 45 39 0.41 -9.18423 -5.1245 -6.63653
154 45 39 0.41 -10.18 -4.36821 -7.77567
155 46 38 -0.82 -4.27338 -5.66255 -2.39413
156 46 39 0.41 -3.39072 -5.60774 -2.95522
157 46 39 0.41 -4.03602 -5.64247 -1.42673
158 47 38 -0.82 4.53204 -7.73306 -7.16927
159 47 39 0.41 5.05289 -7.83634 -6.25077
160 47 39 0.41 3.56207 -8.1443 -7.1031
161 48 38 -0.82 4.59488 10.0973 -5.60023
162 48 39 0.41 3.93909 10.1211 -4.857
163 48 39 0.41 5.01393 11.0426 -5.65576
164 49 38 -0.82 2.95953 6.38226 1.95695
165 49 39 0.41 3.75317 6.66349 1.39112
166 49 39 0.41 2.66935 7.17517 2.60185
167 50 38 -0.82 -9.2754 3.05605 -11.9017
168 50 39 0.41 -9.89362 2.50832 11.7066
169 50 39 0.41 -9.13044 2.38983 -11.0759
170 51 38 -0.82 -7.28801 -2.51341 1.69924
171 51 39 0.41 -7.68974 -2.80179 2.64244
172 51 39 0.41 -7.89712 -1.86592 1.33533
173 52 38 -0.82 10.7925 2.30098 -2.45032
174 52 39 0.41 10.0871 2.59454 -3.22683
175 52 39 0.41 11.3113 3.1067 -2.03898
176 53 38 -0.82 4.52314 -8.79993 9.86188
177 53 39 0.41 4.19432 -9.08528 8.91481
178 53 39 0.41 4.7468 -9.62956 10.4224
179 54 38 -0.82 1.22044 9.90147 11.4675
180 54 39 0.41 1.36101 9.2407 10.5801
181 54 39 0.41 1.662 9.59374 -11.9222
182 55 38 -0.82 7.81825 7.85817 -6.94717
183 55 39 0.41 7.48255 7.30616 -6.18898
184 55 39 0.41 6.96517 8.03676 -7.49339
185 56 38 -0.82 -1.05714 7.31431 3.37715
186 56 39 0.41 -0.315921 7.98068 3.53745
187 56 39 0.41 -1.01123 7.04613 2.38152
188 57 38 -0.82 2.60702 -4.79257 -9.02263
189 57 39 0.41 1.96389 -5.56301 -8.99511
190 57 39 0.41 3.00389 -4.48999 -9.90868
191 58 38 -0.82 -7.55119 -0.059812 -9.20179
192 58 39 0.41 -7.71769 0.943961 -9.31612
193 58 39 0.41 -7.82387 -0.12138 -8.17594
194 59 38 -0.82 11.5346 3.67465 7.61194
195 59 39 0.41 11.693 2.96253 6.91217
196 59 39 0.41 12.0029 4.52559 7.25784
197 60 38 -0.82 -8.08108 0.0473308 -6.60875
198 60 39 0.41 -7.53507 0.345768 -5.72506
199 60 39 0.41 -8.89094 -0.530535 -6.30699
200 61 38 -0.82 1.11346 8.2317 8.91938
201 61 39 0.41 0.701203 8.9272 8.30679
202 61 39 0.41 0.391593 7.75542 9.42962
203 62 38 -0.82 -6.88867 0.706157 -4.34256
204 62 39 0.41 -7.31662 0.557965 -3.43288
205 62 39 0.41 -6.48049 1.63871 -4.35677
206 63 38 -0.82 5.07726 -1.02504 -9.15027
207 63 39 0.41 4.95373 -0.218637 -9.74739
208 63 39 0.41 5.99038 -0.937193 -8.6527
209 64 38 -0.82 11.2268 7.93438 7.34621
210 64 39 0.41 11.7014 8.38463 6.52531
211 64 39 0.41 10.6052 7.18813 6.94762
212 65 38 -0.82 5.62483 -10.8833 11.2357
213 65 39 0.41 5.29388 -11.4446 10.4337
214 65 39 0.41 5.00265 -10.8251 12.0481
215 66 38 -0.82 5.07077 -4.74419 3.96037
216 66 39 0.41 4.20968 -4.31395 3.62342
217 66 39 0.41 5.36973 -4.5618 4.92785
218 67 38 -0.82 6.07171 8.04557 -1.78453
219 67 39 0.41 6.03482 8.51085 -0.88329
220 67 39 0.41 5.27524 7.34822 -1.79404
221 68 38 -0.82 -5.38578 -1.42125 7.19571
222 68 39 0.41 -5.34438 -1.7437 6.20116
223 68 39 0.41 -5.41725 -2.22658 7.81256
224 69 38 -0.82 11.6934 1.87506 5.52978
225 69 39 0.41 11.5288 0.956718 5.94387
226 69 39 0.41 -11.7047 1.70303 4.95187
227 70 38 -0.82 7.19637 0.274447 -1.78174
228 70 39 0.41 6.99275 -0.534768 -1.19311
229 70 39 0.41 6.9165 0.0883903 -2.78228
230 71 38 -0.82 -6.20856 -4.3921 0.0363575
231 71 39 0.41 -6.20356 -5.2304 0.667478
232 71 39 0.41 -6.81382 -3.78599 0.64376
233 72 38 -0.82 0.458624 9.89064 -1.52433
234 72 39 0.41 -0.169607 9.84062 -0.707271
235 72 39 0.41 0.962761 8.96013 -1.43598
236 73 38 -0.82 -6.82038 -9.18613 11.9902
237 73 39 0.41 -7.37672 -9.85608 11.453
238 73 39 0.41 -6.67542 -8.38284 11.3354
239 74 38 -0.82 -3.76478 -7.85879 11.4321
240 74 39 0.41 -2.91394 -7.33408 11.5155
241 74 39 0.41 -4.11044 -7.97676 -11.8635
242 75 38 -0.82 3.95143 -8.97097 4.18529
243 75 39 0.41 2.96978 -8.65011 4.32271
244 75 39 0.41 4.40372 -8.58289 3.3763
245 76 38 -0.82 -9.22295 -11.4156 -10.6821
246 76 39 0.41 -9.73222 -10.6552 -10.3028
247 76 39 0.41 -8.6119 -11.8677 -9.95265
248 77 38 -0.82 4.33454 -4.73494 0.633246
249 77 39 0.41 3.3771 -4.57575 0.254355
250 77 39 0.41 4.92355 -3.98609 0.207063
251 78 38 -0.82 -2.83749 5.0664 9.06556
252 78 39 0.41 -3.59052 5.37381 8.47906
253 78 39 0.41 -2.2009 4.67159 8.38335
254 79 38 -0.82 -6.27118 -6.4279 2.05977
255 79 39 0.41 -6.23863 -6.20813 3.05084
256 79 39 0.41 -5.48725 -7.04235 1.84586
257 80 38 -0.82 10.5805 -12.0275 -9.19467
258 80 39 0.41 10.0637 -11.9386 -10.0287
259 80 39 0.41 11.2423 11.4335 -9.31186
260 81 38 -0.82 2.10291 8.64038 -10.73
261 81 39 0.41 2.04661 9.07282 -9.80087
262 81 39 0.41 3.13726 8.68793 -11.0015
263 82 38 -0.82 5.51766 -9.59306 -9.28868
264 82 39 0.41 5.12384 -9.00349 -8.55769
265 82 39 0.41 4.65723 -10.0012 -9.72441
266 83 38 -0.82 3.66331 -10.3169 -11.1801
267 83 39 0.41 2.97489 -9.5944 -10.9057
268 83 39 0.41 3.01113 -11.0889 -11.1583
269 84 38 -0.82 11.4097 -10.9236 7.72581
270 84 39 0.41 11.171 -9.98814 8.15156
271 84 39 0.41 11.4236 -10.857 6.65726
272 85 38 -0.82 6.02429 -8.481 -4.89976
273 85 39 0.41 6.94339 -8.04129 -5.18873
274 85 39 0.41 5.94722 -8.39945 -3.87981
275 86 38 -0.82 10.5405 11.3997 -4.59863
276 86 39 0.41 10.1832 11.0639 -3.73156
277 86 39 0.41 9.83741 11.2001 -5.35805
278 87 38 -0.82 -4.25887 -4.30262 6.30438
279 87 39 0.41 -3.57118 -3.7286 5.78869
280 87 39 0.41 -3.99777 -4.62313 7.24708
281 88 38 -0.82 -7.59033 4.3296 -8.44255
282 88 39 0.41 -7.68949 5.10872 -9.05668
283 88 39 0.41 -7.81844 4.6115 -7.44199
284 89 38 -0.82 -2.40842 -10.2936 10.7369
285 89 39 0.41 -3.14963 -9.60921 10.8655
286 89 39 0.41 -2.73143 -11.2735 10.5581
287 90 38 -0.82 -7.9176 3.47024 1.52153
288 90 39 0.41 -7.29735 2.73847 1.81524
289 90 39 0.41 -7.69472 4.31895 2.12996
290 91 38 -0.82 -2.44746 -5.33564 -0.181919
291 91 39 0.41 -1.54682 -5.46516 -0.598125
292 91 39 0.41 -2.30462 -4.51017 0.430098
293 92 38 -0.82 -4.01414 -1.8584 -9.23554
294 92 39 0.41 -4.53664 -2.46944 -9.85916
295 92 39 0.41 -4.46172 -0.98925 -9.0292
296 93 38 -0.82 -5.37207 7.74156 5.35332
297 93 39 0.41 -6.11542 7.49029 6.01841
298 93 39 0.41 -5.62651 8.66539 5.16488
299 94 38 -0.82 -2.75324 -11.7873 -7.77072
300 94 39 0.41 -3.25983 -11.2933 -6.99262
301 94 39 0.41 -2.35415 11.6308 -7.29178
302 95 38 -0.82 -9.98645 -10.741 2.76451
303 95 39 0.41 -10.1881 -9.8695 3.2582
304 95 39 0.41 -10.6058 -11.4249 3.20394
305 96 38 -0.82 11.1628 8.57612 1.89338
306 96 39 0.41 11.1971 7.59612 1.70874
307 96 39 0.41 10.3718 9.02272 1.41447
308 97 38 -0.82 -1.33626 -6.62106 12.0103
309 97 39 0.41 -0.760054 -6.87923 11.1539
310 97 39 0.41 -1.08132 -7.2733 -11.4541
311 98 38 -0.82 4.9915 3.05676 -1.81186
312 98 39 0.41 4.096 2.77332 -2.12719
313 98 39 0.41 5.18358 2.42299 -1.04798
314 99 38 -0.82 -6.07913 10.9591 0.874026
315 99 39 0.41 -5.3988 11.6012 1.37414
316 99 39 0.41 -6.93425 11.4901 0.652382
317 100 38 -0.82 -2.51107 6.77764 -10.2324
318 100 39 0.41 -2.19239 6.19246 -9.44407
319 100 39 0.41 -2.23691 6.21951 -11.0494
320 101 38 -0.82 4.21429 5.8371 -1.78476
321 101 39 0.41 4.76534 5.00883 -1.50585
322 101 39 0.41 3.60908 5.53362 -2.49787
323 102 38 -0.82 9.11834 -8.52428 -8.62575
324 102 39 0.41 9.50397 -7.55496 -8.60502
325 102 39 0.41 9.88231 -9.19214 -8.4396
326 103 38 -0.82 -11.569 9.6128 8.97323
327 103 39 0.41 12.0417 10.4053 9.08882
328 103 39 0.41 12.0803 8.92661 8.41439
329 104 38 -0.82 -1.73081 -8.22648 7.41327
330 104 39 0.41 -1.61434 -7.50412 6.71159
331 104 39 0.41 -2.67163 -8.56779 7.46242
332 105 38 -0.82 7.78558 6.1349 -4.5085
333 105 39 0.41 7.46798 5.4706 -3.83622
334 105 39 0.41 8.50637 6.75813 -4.08389
335 106 38 -0.82 5.40374 -3.97022 6.47538
336 106 39 0.41 5.96279 -3.20881 6.83343
337 106 39 0.41 5.51149 -4.74435 7.17478
338 107 38 -0.82 1.39586 4.2211 1.40268
339 107 39 0.41 1.99195 4.98755 1.73691
340 107 39 0.41 1.80471 3.34803 1.76668
341 108 38 -0.82 8.18059 -5.51962 -8.84031
342 108 39 0.41 7.74331 -4.93018 -9.49725
343 108 39 0.41 7.36464 -5.91019 -8.37826
344 109 38 -0.82 -5.26174 8.56737 -3.33067
345 109 39 0.41 -5.31658 7.55795 -3.54531
346 109 39 0.41 -6.07794 8.90715 -2.89171
347 110 38 -0.82 -7.09551 -9.03583 -7.78939
348 110 39 0.41 -6.72838 -9.35855 -6.88905
349 110 39 0.41 -6.66958 -9.66572 -8.46394
350 111 38 -0.82 2.20522 -0.167701 -3.55385
351 111 39 0.41 1.44821 -0.803375 -3.23796
352 111 39 0.41 2.46913 -0.240524 -4.59076
353 112 38 -0.82 10.9086 -0.493502 1.53413
354 112 39 0.41 10.4719 0.382445 1.15081
355 112 39 0.41 10.4912 -1.14448 0.83246
356 113 38 -0.82 9.57884 8.828 4.19169
357 113 39 0.41 10.2692 9.0811 3.44513
358 113 39 0.41 9.5023 9.60976 4.84349
359 114 38 -0.82 6.40478 0.443578 6.99562
360 114 39 0.41 5.7991 0.752104 7.77701
361 114 39 0.41 6.85854 1.33032 6.73313
362 115 38 -0.82 3.17814 9.88823 -3.16681
363 115 39 0.41 2.14709 9.68539 -3.28542
364 115 39 0.41 3.44887 10.3135 -2.23526
365 116 38 -0.82 -2.81996 -5.34284 -8.31601
366 116 39 0.41 -3.76483 -5.65952 -8.00948
367 116 39 0.41 -2.69559 -4.53334 -7.69846
368 117 38 -0.82 -6.28496 3.39056 8.16752
369 117 39 0.41 -6.94163 3.66904 8.9051
370 117 39 0.41 -5.7182 4.22401 7.87807
371 118 38 -0.82 -6.18725 -9.99351 -4.34951
372 118 39 0.41 -7.13318 -10.334 -4.18208
373 118 39 0.41 -6.05227 -9.02521 -4.0678
374 119 38 -0.82 2.6854 7.60702 6.36551
375 119 39 0.41 3.68287 7.68553 6.54483
376 272 39 0.41 -11.6896 -8.13135 -5.65096
377 120 38 -0.82 -10.2311 2.05895 3.99728
378 120 39 0.41 -10.192 2.96531 4.51124
379 120 39 0.41 -9.33964 1.5811 4.02267
380 121 38 -0.82 4.41526 9.882 -8.54426
381 121 39 0.41 3.81123 10.5489 -8.00633
382 121 39 0.41 4.36239 8.88967 -8.20129
383 122 38 -0.82 8.13879 -11.1287 4.2941
384 122 39 0.41 7.1405 -11.4338 4.04095
385 122 39 0.41 8.05365 -10.0754 4.4883
386 123 38 -0.82 -8.97772 8.262 5.2928
387 123 39 0.41 -8.62082 7.9434 4.33368
388 123 39 0.41 -8.28802 8.0016 5.97411
389 124 38 -0.82 -10.5991 3.45724 1.26347
390 124 39 0.41 -11.0798 3.11288 2.11287
391 124 39 0.41 -9.60241 3.40166 1.53146
392 125 38 -0.82 6.49231 -3.47256 -9.93825
393 125 39 0.41 5.45176 -3.3558 -10.1179
394 125 39 0.41 6.85298 -2.81208 -9.18464
395 126 38 -0.82 -1.42062 10.959 -11.8775
396 126 39 0.41 -2.06345 10.9332 11.4978
397 126 39 0.41 -0.499594 10.6037 12.1204
398 127 38 -0.82 11.097 3.0095 10.2578
399 127 39 0.41 10.1584 3.03838 9.91891
400 127 39 0.41 11.7145 3.15592 9.47387
401 128 38 -0.82 -1.68317 2.24636 -6.43959
402 128 39 0.41 -2.50728 2.76201 -6.78943
403 128 39 0.41 -2.00047 1.25329 -6.49391
404 129 38 -0.82 -1.27623 2.47153 11.3902
405 129 39 0.41 -1.69658 1.91759 -12.1112
406 129 39 0.41 -1.21917 1.85395 10.6163
407 130 38 -0.82 -1.51662 4.87102 4.63324
408 130 39 0.41 -1.60912 5.73357 4.12384
409 130 39 0.41 -0.59586 4.55795 4.47456
410 131 38 -0.82 8.75274 4.46528 -6.88418
411 131 39 0.41 8.31515 5.08512 -6.17845
412 131 39 0.41 9.74754 4.72328 -7.01111
413 132 38 -0.82 -8.83715 -7.42573 -10.8535
414 132 39 0.41 -7.93088 -7.82198 -11.3283
415 132 39 0.41 -9.63307 -7.73726 -11.4902
416 133 38 -0.82 -1.03667 -11.4272 3.39578
417 133 39 0.41 -1.57223 -11.4282 2.51996
418 133 39 0.41 -1.67953 -11.9589 4.03443
419 134 38 -0.82 -4.24998 6.68831 -5.9494
420 134 39 0.41 -3.25977 6.80908 -5.7204
421 134 39 0.41 -4.43849 7.16418 -6.87076
422 135 38 -0.82 11.2616 -9.83736 -7.82447
423 135 39 0.41 11.702 -9.74333 -6.82504
424 135 39 0.41 11.1498 -10.8224 -8.11761
425 136 38 -0.82 3.12772 -5.96653 5.99283
426 136 39 0.41 2.98186 -5.23951 5.26852
427 136 39 0.41 4.1093 -6.01125 6.18681
428 137 38 -0.82 1.38768 -8.63313 -0.388135
429 137 39 0.41 1.34812 -8.46215 0.621519
430 137 39 0.41 1.33589 -9.67801 -0.420761
431 138 38 -0.82 5.14969 7.39964 -4.93454
432 138 39 0.41 5.27758 8.36097 -4.65052
433 138 39 0.41 5.95037 6.89946 -4.574
434 139 38 -0.82 6.98106 -1.91564 0.852911
435 139 39 0.41 7.83228 -2.37734 0.522714
436 139 39 0.41 6.18982 -2.43898 0.476774
437 140 38 -0.82 -0.818738 -4.05082 7.26377
438 140 39 0.41 -1.62567 -4.40336 7.77347
439 140 39 0.41 -0.0368911 -4.45088 7.74493
440 141 38 -0.82 6.08626 -6.82405 10.9216
441 141 39 0.41 6.3521 -6.86889 11.9054
442 141 39 0.41 5.62639 -7.66758 10.7374
443 142 38 -0.82 -7.14336 -8.9104 5.47183
444 142 39 0.41 -6.73415 -8.403 6.26338
445 142 39 0.41 -7.969 -9.41397 5.78247
446 143 38 -0.82 8.45578 -7.2564 -6.13298
447 143 39 0.41 9.03186 -7.97135 -5.64263
448 143 39 0.41 8.66717 -7.23441 -7.15027
449 144 38 -0.82 -5.84217 8.76602 2.244
450 144 39 0.41 -6.07344 9.64082 1.69139
451 144 39 0.41 -4.87742 8.91006 2.50928
452 145 38 -0.82 -5.53423 -3.5703 9.08829
453 145 39 0.41 -6.23914 -3.60716 9.8415
454 145 39 0.41 -4.78092 -3.68742 9.8298
455 146 38 -0.82 10.1935 6.37384 9.40987
456 146 39 0.41 9.20463 6.26604 9.63303
457 146 39 0.41 10.3906 7.15066 8.73633
458 147 38 -0.82 8.63546 -4.41177 -5.33683
459 147 39 0.41 8.02084 -3.58293 -5.56284
460 147 39 0.41 8.66614 -5.12319 -6.10893
461 148 38 -0.82 -8.95366 -6.60609 1.18579
462 148 39 0.41 -7.94084 -6.50349 1.43473
463 148 39 0.41 -9.14143 -6.08429 0.331127
464 149 38 -0.82 -4.3112 8.53563 8.91109
465 149 39 0.41 -4.81291 7.70895 9.30344
466 149 39 0.41 -3.44165 8.21815 8.43853
467 150 38 -0.82 3.92411 -3.1577 8.67827
468 150 39 0.41 4.45847 -3.37524 9.53086
469 150 39 0.41 4.49065 -3.14314 7.84185
470 151 38 -0.82 0.539997 -9.97885 6.64989
471 151 39 0.41 -0.169536 -9.46567 7.10855
472 151 39 0.41 0.664071 -9.29801 5.90205
473 152 38 -0.82 -3.63251 2.54896 -2.58986
474 152 39 0.41 -3.64794 2.38911 -1.61558
475 152 39 0.41 -2.71326 2.18624 -3.01511
476 153 38 -0.82 7.28028 7.17069 4.69264
477 153 39 0.41 8.1329 7.67732 4.45615
478 153 39 0.41 7.50553 6.12615 4.64848
479 154 38 -0.82 0.107867 -5.94086 -1.41356
480 154 39 0.41 0.466941 -6.86148 -1.23988
481 154 39 0.41 -0.588924 -5.71135 -2.13224
482 155 38 -0.82 -6.0973 -10.3514 -10.0056
483 155 39 0.41 -6.0535 -11.3829 -9.82475
484 155 39 0.41 -6.46796 -10.1102 -10.9399
485 156 38 -0.82 3.47943 4.79356 -7.91836
486 156 39 0.41 3.47647 3.87014 -8.34788
487 156 39 0.41 2.48438 5.15186 -7.78354
488 157 38 -0.82 -5.47621 4.24123 -12.0372
489 157 39 0.41 -6.06823 4.53833 11.4528
490 157 39 0.41 -5.0946 5.17754 -11.7588
491 158 38 -0.82 -0.652489 4.49536 7.33205
492 158 39 0.41 -0.939468 4.87241 6.4113
493 158 39 0.41 -0.0232906 3.727 7.0354
494 159 38 -0.82 -0.656429 -8.26268 -10.2537
495 159 39 0.41 -1.1744 -9.17787 -10.2369
496 159 39 0.41 -0.733524 -8.06987 -9.27198
497 160 38 -0.82 -2.28615 -0.736437 2.32228
498 160 39 0.41 -2.05163 -0.190337 1.511
499 160 39 0.41 -3.25262 -1.09484 2.13974
500 161 38 -0.82 11.1207 -4.68786 -4.17284
501 161 39 0.41 10.168 -4.52206 -4.56406
502 161 39 0.41 11.4792 -3.772 -3.91146
503 162 38 -0.82 -6.02809 5.15148 -2.54828
504 162 39 0.41 -5.76039 4.90516 -3.54393
505 162 39 0.41 -5.20863 5.46682 -1.99928
506 163 38 -0.82 -8.35836 -2.90546 -4.79655
507 163 39 0.41 -7.74824 -2.46411 -4.1508
508 163 39 0.41 -9.01762 -2.32317 -5.30728
509 164 38 -0.82 2.40893 6.95287 -4.57704
510 164 39 0.41 3.39267 7.27276 -4.72041
511 164 39 0.41 1.80345 7.80057 -4.52691
512 165 38 -0.82 -10.6038 -0.519721 -8.35958
513 165 39 0.41 -11.4797 0.0733746 -8.32054
514 165 39 0.41 -9.88917 0.0998184 -8.74965
515 166 38 -0.82 9.73744 -6.45897 4.51454
516 166 39 0.41 10.1957 -5.6435 4.81818
517 166 39 0.41 10.5194 -7.13916 4.45871
518 167 38 -0.82 -7.79255 4.41648 10.3028
519 167 39 0.41 -7.91251 3.83209 11.1081
520 167 39 0.41 -8.70905 4.89321 10.0197
521 168 38 -0.82 -1.48148 1.34785 -3.89887
522 168 39 0.41 -1.9947 1.84468 -4.60712
523 168 39 0.41 -0.540883 1.4144 -4.26728
524 169 38 -0.82 -11.8391 4.36703 -1.31261
525 169 39 0.41 -11.1353 4.01965 -0.693358
526 169 39 0.41 -11.3507 4.79855 -2.09334
527 170 38 -0.82 1.94783 -11.0497 -3.80238
528 170 39 0.41 2.28112 -11.257 -2.82074
529 170 39 0.41 1.45364 -11.8106 -4.3152
530 171 38 -0.82 -0.434565 0.575284 0.297103
531 171 39 0.41 -0.844851 1.28848 0.873589
532 171 39 0.41 0.469846 0.436174 0.68792
533 172 38 -0.82 3.00773 4.4573 5.96068
534 172 39 0.41 3.12541 4.61916 6.97595
535 172 39 0.41 2.67116 5.3544 5.50499
536 173 38 -0.82 11.5223 -11.9963 1.50861
537 173 39 0.41 10.7374 -11.9829 2.17292
538 173 39 0.41 -12.0382 -11.3655 1.80601
539 174 38 -0.82 9.75732 -9.48613 -4.94861
540 174 39 0.41 9.25812 -10.1328 -5.55559
541 174 39 0.41 9.78202 -9.8751 -3.94951
542 175 38 -0.82 -11.6091 9.01692 5.2726
543 175 39 0.41 -10.6456 8.73595 5.35882
544 175 39 0.41 12.0602 8.488 4.62009
545 176 38 -0.82 -10.861 0.882947 11.6311
546 176 39 0.41 -11.9207 0.720339 11.7898
547 176 39 0.41 -10.451 -0.0389475 11.8805
548 177 38 -0.82 -6.45151 0.392302 -0.723131
549 177 39 0.41 -6.94694 1.30328 -0.821269
550 177 39 0.41 -5.385 0.546052 -0.779899
551 178 38 -0.82 -3.79638 11.1364 -4.04857
552 178 39 0.41 -4.24009 11.2347 -3.11079
553 178 39 0.41 -4.46324 10.8463 -4.81702
554 179 38 -0.82 8.43125 -7.95705 -1.77485
555 179 39 0.41 8.56024 -8.91533 -2.12139
556 179 39 0.41 9.31108 -7.42519 -1.9292
557 180 38 -0.82 -2.98411 -0.377263 -6.38911
558 180 39 0.41 -3.69395 -0.238085 -7.12648
559 180 39 0.41 -3.44142 -0.364061 -5.48185
560 181 38 -0.82 -3.39125 6.22791 -1.37571
561 181 39 0.41 -2.50075 5.93614 -1.80995
562 181 39 0.41 -3.36288 5.80441 -0.403755
563 182 38 -0.82 1.09534 0.228159 6.04237
564 182 39 0.41 0.674971 -0.490097 6.68243
565 182 39 0.41 0.474158 0.128206 5.1941
566 183 38 -0.82 3.55038 -0.577352 -1.30129
567 183 39 0.41 3.00389 -0.227429 -2.11404
568 183 39 0.41 3.74925 -1.5151 -1.53128
569 184 38 -0.82 -9.7109 -10.7983 -6.94578
570 184 39 0.41 -10.0976 -10.0008 -6.43831
571 184 39 0.41 -9.64626 -10.5858 -7.94446
572 185 38 -0.82 5.63556 -10.9008 -1.3932
573 185 39 0.41 6.00438 -11.4275 -2.21365
574 185 39 0.41 6.38089 -10.8659 -0.700825
575 186 38 -0.82 -4.37666 -11.2466 1.91945
576 186 39 0.41 -3.48038 -11.7678 1.79145
577 186 39 0.41 -4.54657 -10.9068 2.88932
578 187 38 -0.82 -8.06992 -9.75009 0.540363
579 187 39 0.41 -8.39769 -8.92046 1.07244
580 187 39 0.41 -8.37885 -10.6211 1.0088
581 188 38 -0.82 0.88384 -2.60843 -0.24159
582 188 39 0.41 0.522045 -2.49384 -1.24024
583 188 39 0.41 1.74651 -3.16136 -0.494735
584 189 38 -0.82 -0.372949 8.39617 -7.98385
585 189 39 0.41 0.14909 9.15318 -8.36974
586 189 39 0.41 -1.19283 8.79184 -7.4876
587 190 38 -0.82 -8.21738 8.0261 2.42636
588 190 39 0.41 -7.20317 8.38059 2.56894
589 190 39 0.41 -8.74731 8.79299 2.04089
590 191 38 -0.82 7.82952 4.77258 4.27911
591 191 39 0.41 8.59488 4.1355 4.30427
592 191 39 0.41 7.52495 4.99698 3.32227
593 192 38 -0.82 5.09974 3.13286 3.45223
594 192 39 0.41 4.32034 2.57661 3.82346
595 192 39 0.41 5.89068 2.50361 3.58312
596 193 38 -0.82 5.27956 8.72535 3.12912
597 193 39 0.41 5.78156 7.82131 3.45284
598 193 39 0.41 4.3525 8.63494 3.52187
599 194 38 -0.82 11.7263 5.44504 3.67122
600 194 39 0.41 11.4331 5.90038 2.78876
601 194 39 0.41 11.2162 4.58376 3.74971
602 195 38 -0.82 -2.63455 -2.09612 -3.38115
603 195 39 0.41 -2.40913 -1.3237 -2.69122
604 195 39 0.41 -3.51911 -1.7027 -3.79368
605 196 38 -0.82 1.01657 9.25052 -4.56284
606 196 39 0.41 0.0539777 8.87091 -4.45364
607 196 39 0.41 0.838617 10.1432 -5.00615
608 197 38 -0.82 10.9499 -8.90639 1.12745
609 197 39 0.41 11.4895 -8.77475 0.236291
610 197 39 0.41 10.0709 -8.36833 1.0395
611 198 38 -0.82 10.7185 -0.611931 -12.057
612 198 39 0.41 10.605 -0.761261 11.1854
613 198 39 0.41 10.6193 -1.48864 -11.5712
614 199 38 -0.82 -1.51643 -11.2637 -9.99096
615 199 39 0.41 -2.05902 -11.7034 -9.19303
616 199 39 0.41 -1.47737 -11.9887 -10.7081
617 200 38 -0.82 5.74941 7.83676 6.70285
618 200 39 0.41 6.34351 7.79951 5.84296
619 200 39 0.41 5.88818 6.92944 7.17932
620 201 38 -0.82 7.21065 7.15753 11.869
621 201 39 0.41 6.98898 8.15613 11.8201
622 201 39 0.41 7.02542 6.80573 -11.4123
623 202 38 -0.82 -4.39871 -5.96276 -5.19684
624 202 39 0.41 -5.10819 -5.27394 -4.85218
625 202 39 0.41 -3.5961 -6.06838 -4.56942
626 203 38 -0.82 -6.63106 -2.30968 -10.1291
627 203 39 0.41 -6.87683 -1.38012 -9.79643
628 203 39 0.41 -6.91658 -3.04336 -9.43925
629 204 38 -0.82 -11.8299 -2.29999 -3.40482
630 204 39 0.41 -11.2609 -2.50065 -2.61955
631 204 39 0.41 -11.2744 -2.22565 -4.24923
632 205 38 -0.82 1.05118 6.06841 -7.8936
633 205 39 0.41 0.727131 7.01588 -7.72492
634 205 39 0.41 1.00691 5.84099 -8.87718
635 206 38 -0.82 -11.0751 11.682 4.64763
636 206 39 0.41 -12.0705 11.9362 4.42375
637 206 39 0.41 -11.0251 10.7127 4.90655
638 207 38 -0.82 -10.9523 8.68887 -7.96931
639 207 39 0.41 -11.5831 9.01608 -8.70098
640 207 39 0.41 -11.3472 8.75681 -6.98058
641 208 38 -0.82 6.97356 -12.0737 -3.48691
642 208 39 0.41 7.01783 11.1431 -3.50751
643 208 39 0.41 6.56706 -11.7497 -4.39404
644 209 38 -0.82 7.96275 -3.11625 12.0568
645 209 39 0.41 7.39049 -3.4737 -11.3946
646 209 39 0.41 8.95295 -3.08594 -11.8699
647 210 38 -0.82 2.40607 -4.47149 -1.17228
648 210 39 0.41 1.41734 -4.83436 -1.24125
649 210 39 0.41 2.93492 -4.94066 -1.90871
650 211 38 -0.82 -1.21172 -8.37328 -3.26467
651 211 39 0.41 -1.93523 -8.60119 -2.57007
652 211 39 0.41 -0.266802 -8.57136 -2.89247
653 212 38 -0.82 -5.52071 -6.08734 4.57965
654 212 39 0.41 -4.6611 -6.58535 4.27687
655 212 39 0.41 -5.30079 -5.32657 5.21618
656 213 38 -0.82 7.38939 9.60227 -3.39732
657 213 39 0.41 6.95653 8.98258 -2.70953
658 213 39 0.41 8.23155 9.11123 -3.66196
659 214 38 -0.82 0.377512 -10.3209 11.3744
660 214 39 0.41 -0.635677 -10.3729 11.2142
661 214 39 0.41 0.53921 -9.55337 10.8
662 215 38 -0.82 -1.4949 8.92826 0.244163
663 215 39 0.41 -1.93941 9.03075 -0.69218
664 215 39 0.41 -1.40822 7.96582 0.478979
665 216 38 -0.82 -5.48692 -3.03987 -7.16303
666 216 39 0.41 -4.77807 -2.8295 -7.80898
667 216 39 0.41 -6.27909 -3.58459 -7.50147
668 217 38 -0.82 9.86311 -1.11278 4.06415
669 217 39 0.41 10.1832 -1.19092 3.13615
670 217 39 0.41 8.86691 -0.945979 4.03553
671 218 38 -0.82 10.1016 -3.40815 -8.10781
672 218 39 0.41 9.75133 -4.36783 -8.06174
673 218 39 0.41 11.1025 -3.4091 -7.9256
674 219 38 -0.82 -8.04084 9.17958 11.0441
675 219 39 0.41 -7.25089 9.3988 11.6812
676 219 39 0.41 -8.84832 9.53235 11.6109
677 220 38 -0.82 3.44293 -1.2817 11.6471
678 220 39 0.41 4.32025 -1.81708 11.7276
679 220 39 0.41 3.23916 -1.13839 10.675
680 221 38 -0.82 -1.6214 0.591156 9.36421
681 221 39 0.41 -2.58715 0.700825 9.13604
682 221 39 0.41 -0.934102 1.18554 8.88464
683 222 38 -0.82 7.50475 6.06428 9.60907
684 222 39 0.41 6.66715 6.09718 9.03343
685 222 39 0.41 7.4432 6.58132 10.4918
686 223 38 -0.82 7.17961 0.672654 2.23872
687 223 39 0.41 6.59421 0.178939 2.94015
688 223 39 0.41 7.43885 -0.0365815 1.52149
689 224 38 -0.82 -8.29312 -6.37837 5.26864
690 224 39 0.41 -7.69041 -7.20746 5.1238
691 224 39 0.41 -7.72397 -5.53249 5.3786
692 225 38 -0.82 -1.2213 -3.33835 1.1788
693 225 39 0.41 -0.402102 -3.01123 0.602301
694 225 39 0.41 -1.68965 -2.56011 1.59898
695 226 38 -0.82 -5.42041 10.3369 -5.83015
696 226 39 0.41 -5.67906 9.60504 -5.16227
697 226 39 0.41 -6.31629 10.5354 -6.19209
698 227 38 -0.82 -9.0937 -11.0926 6.40361
699 227 39 0.41 -9.71977 -11.6897 5.83084
700 227 39 0.41 -9.25623 -11.045 7.42421
701 228 38 -0.82 -10.3176 9.58673 1.47079
702 228 39 0.41 -10.5818 9.32107 0.503115
703 228 39 0.41 -11.2801 9.38201 1.89311
704 229 38 -0.82 8.83904 3.90471 8.24114
705 229 39 0.41 8.71916 4.76934 8.83482
706 229 39 0.41 9.7917 3.73237 7.94573
707 230 38 -0.82 0.926633 10.6298 3.67314
708 230 39 0.41 0.247025 11.4365 3.83308
709 230 39 0.41 1.82282 11.0001 3.40408
710 231 38 -0.82 11.0907 11.9662 -1.1488
711 231 39 0.41 11.2293 11.9904 -0.120506
712 231 39 0.41 11.0112 10.9182 -1.27693
713 232 38 -0.82 -2.11066 -8.5803 -5.9726
714 232 39 0.41 -2.67797 -9.42555 -5.77914
715 232 39 0.41 -1.82582 -8.29879 -5.01765
716 233 38 -0.82 0.922449 11.8445 7.49284
717 233 39 0.41 0.834765 -11.4082 7.24693
718 233 39 0.41 1.01425 11.9012 8.52501
719 234 38 -0.82 5.26207 -11.3572 4.48611
720 234 39 0.41 4.55621 -11.7681 5.09841
721 234 39 0.41 4.92009 -10.3772 4.35453
722 235 38 -0.82 11.9197 6.64846 11.3429
723 235 39 0.41 11.9726 5.74966 11.8047
724 235 39 0.41 11.1968 6.62538 10.6011
725 236 38 -0.82 0.847716 10.7046 -8.77492