Created on 2016-12-24 13:06:12.030128 by md_utils.cp2k2data version 0.14.0 from template file tests/test_data/cp2k2data/glue_revised.data and cp2k output file tests/test_data/cp2k2data/glu_3.0_1.075.out

1429  atoms
961  bonds
514  angles
64  dihedrals
5  impropers
20  atom types
21  bond types
35  angle types
50  dihedral types
6  improper types
-12.12469     12.12469 xlo xhi
-12.12469     12.12469 ylo yhi
-12.12469     12.12469 zlo zhi

Masses

1 1.008 # HT, HW
2 15.9994 # OT, OW
3 15.9994 # OTH, OH
4 1.008 # HTH, HO
5 1.008 # H, H
6 1.008 # HB1
7 1.008 # HA2, HA
8 1.008 # HA3
9 12.011 # C
10 12.011 # CT1, CT1
11 12.011 # CT2, CT2
12 12.011 # CT2A, CT2A
13 12.011 # CT3
14 12.011 # CC, CC
15 14.007 # NH1
16 15.999 # O
17 15.999 # OC, OC
18 15.999 # OB, OB
19 15.999 # OH1, OH1
20 12.011 # CD, CD

Atoms

1 1 9 0.51 -1.441 -8.975 -13.069 # C
2 1 16 -0.51 -2.085 -8.513 -14.048 # O
3 1 15 -0.47 -1.826 -10.155 -12.61 # NH1
4 1 5 0.31 -1.385 -10.634 -11.831 # H
5 1 13 -0.11 -2.73 -11.05 -13.242 # CT3
6 1 8 0.09 -2.21 -11.389 -14.13 # HA3
7 1 8 0.09 -2.804 -11.909 -12.589 # HA3
8 1 8 0.09 -3.721 -10.57 -13.501 # HA3
9 1 13 -0.27 0.146 -5.394 -15.039 # CT3
10 1 8 0.09 -0.191 -4.547 -14.288 # HA3
11 1 8 0.09 -0.653 -5.506 -15.895 # HA3
12 1 8 0.09 1.094 -4.89 -15.422 # HA3
13 1 9 0.51 0.414 -6.576 -14.304 # C
14 1 16 -0.51 1.536 -7.071 -14.443 # O
15 1 15 -0.47 -0.56 -7.049 -13.409 # NH1
16 1 5 0.31 -1.509 -6.558 -13.316 # H
17 1 10 0.07 -0.431 -8.09 -12.542 # CT1, Raptor 8
18 1 6 0.09 0.54 -8.536 -12.616 # HB1
19 1 12 -0.18 -0.813 -7.633 -11.122 # CT2A, Raptor 7
20 1 7 0.09 -1.644 -6.958 -11.233 # HA2
21 1 7 0.09 -1.096 -8.595 -10.573 # HA2
22 1 11 -0.28 0.373 -6.825 -10.536 # CT2, Raptor 1 (owned, change charge)
23 1 7 0.09 1.274 -7.422 -10.386 # HA2, Raptor 2
24 1 7 0.09 0.654 -6.028 -11.247 # HA2, Raptor 3
25 1 14 0.62 0.138 -6.135 -9.207 # CC, Raptor 4 (owned)
26 1 17 -0.76 -0.795 -6.304 -8.459 # OC, Raptor 5 (owned)
27 1 17 -0.76 1.079 -5.152 -8.787 # OC, Raptor 6 (owned)
28 2 3 -0.32 -0.212 -3.838 -6.418 # OTH, OH
29 2 4 0.44 0.551 -4.699 -7.967 # HTH, HO
30 2 4 0.44 -0.341 -2.87 -6.234 # HTH, HO
31 2 4 0.44 -1.021 -4.438 -6.358 # HTH, HO
32 3 2 -0.82 5.102 -12.436 -10.626 # OT
33 3 1 0.41 6.059 -12.233 -10.948 # HT
34 3 1 0.41 5.098 -12.431 -9.594 # HT
35 4 2 -0.82 -11.982 -5.765 -7.244 # OT
36 4 1 0.41 -12.445 -5.069 -6.702 # HT
37 4 1 0.41 -11.161 -6.135 -6.748 # HT
38 5 2 -0.82 2.037 -13.546 -7.798 # OT
39 5 1 0.41 1.793 -12.582 -8.012 # HT
40 5 1 0.41 1.586 -14.155 -8.506 # HT
41 6 2 -0.82 9.822 -1.325 -11.716 # OT
42 6 1 0.41 9.406 -1.731 -10.838 # HT
43 6 1 0.41 9.413 -0.425 -11.886 # HT
44 7 2 -0.82 -7.024 -5.815 -19.587 # OT
45 7 1 0.41 -6.064 -6.119 -19.809 # HT
46 7 1 0.41 -7.119 -5.232 -18.735 # HT
47 8 2 -0.82 -5.86 -14.485 -0.025 # OT
48 8 1 0.41 -6.247 -13.868 -0.744 # HT
49 8 1 0.41 -4.938 -14.751 -0.387 # HT
50 9 2 -0.82 -8.812 -17.068 -17.291 # OT
51 9 1 0.41 -9.014 -17.422 -18.239 # HT
52 9 1 0.41 -9.674 -16.691 -16.854 # HT
53 10 2 -0.82 6.163 -0.455 -15.662 # OT
54 10 1 0.41 6.812 -1.079 -15.121 # HT
55 10 1 0.41 6.558 0.151 -16.381 # HT
56 11 2 -0.82 2.242 -10.634 -16.37 # OT
57 11 1 0.41 1.801 -10.056 -15.693 # HT
58 11 1 0.41 3.2 -10.262 -16.453 # HT
59 12 2 -0.82 0.965 -16.829 -2.231 # OT
60 12 1 0.41 0.648 -16.932 -1.309 # HT
61 12 1 0.41 1.861 -16.373 -2.336 # HT
62 13 2 -0.82 4.16 4.027 0.929 # OT
63 13 1 0.41 3.184 4.298 0.736 # HT
64 13 1 0.41 4.452 4.879 1.459 # HT
65 14 2 -0.82 8.432 -11.993 -18.39 # OT
66 14 1 0.41 8.031 -12.787 -18.933 # HT
67 14 1 0.41 8.644 -11.146 -18.925 # HT
68 15 2 -0.82 -3.879 -9.384 -4.85 # OT
69 15 1 0.41 -3.934 -9.374 -3.837 # HT
70 15 1 0.41 -4.817 -9.482 -5.248 # HT
71 16 2 -0.82 -5.987 -13.041 -10.006 # OT
72 16 1 0.41 -6.087 -12.063 -10.326 # HT
73 16 1 0.41 -6.268 -13.203 -9.017 # HT
74 17 2 -0.82 0.537 4.038 -5.091 # OT
75 17 1 0.41 0.025 3.42 -4.434 # HT
76 17 1 0.41 0.506 3.627 -6.034 # HT
77 18 2 -0.82 -1.334 3.383 -12.298 # OT
78 18 1 0.41 -1.353 4.06 -11.528 # HT
79 18 1 0.41 -0.548 2.731 -12.166 # HT
80 19 2 -0.82 -2.602 -10.325 -20.052 # OT
81 19 1 0.41 -2.643 -11.209 -19.553 # HT
82 19 1 0.41 -1.564 -10.188 -20.095 # HT
83 20 2 -0.82 -0.433 -17.529 -4.628 # OT
84 20 1 0.41 -0.377 -17.175 -3.649 # HT
85 20 1 0.41 -0.022 -18.474 -4.772 # HT
86 21 2 -0.82 -5.761 -6.187 -9.391 # OT
87 21 1 0.41 -6.141 -5.299 -9.058 # HT
88 21 1 0.41 -5.512 -6.865 -8.666 # HT
89 22 2 -0.82 -1.932 -14.264 -14.757 # OT
90 22 1 0.41 -2.839 -13.89 -14.545 # HT
91 22 1 0.41 -1.519 -13.674 -15.499 # HT
92 23 2 -0.82 1.894 -11.761 1.845 # OT
93 23 1 0.41 2.221 -11.734 2.814 # HT
94 23 1 0.41 2.609 -11.797 1.106 # HT
95 24 2 -0.82 -4.494 -17.927 -17.177 # OT
96 24 1 0.41 -5.277 -17.237 -17.102 # HT
97 24 1 0.41 -3.619 -17.647 -16.683 # HT
98 25 2 -0.82 -2.883 -14.532 -0.334 # OT
99 25 1 0.41 -2.636 -14.334 -1.31 # HT
100 25 1 0.41 -2.699 -15.528 -0.079 # HT
101 26 2 -0.82 0.785 4.852 -9.379 # OT
102 26 1 0.41 1.044 5.145 -10.348 # HT
103 26 1 0.41 1.149 5.634 -8.826 # HT
104 27 2 -0.82 10.001 5.736 -5.577 # OT
105 27 1 0.41 10.4 5.105 -6.314 # HT
106 27 1 0.41 9.774 6.57 -6.135 # HT
107 28 2 -0.82 12.062 5.949 -14.997 # OT
108 28 1 0.41 12.616 5.893 -14.105 # HT
109 28 1 0.41 12.461 6.809 -15.437 # HT
110 29 2 -0.82 0.645 -2.989 -17.347 # OT
111 29 1 0.41 1.547 -3.44 -17.255 # HT
112 29 1 0.41 0.795 -2.116 -17.891 # HT
113 30 2 -0.82 -5.272 1.543 -17.355 # OT
114 30 1 0.41 -5.086 0.71 -17.933 # HT
115 30 1 0.41 -6.12 1.256 -16.889 # HT
116 31 2 -0.82 -11.303 4.115 1.284 # OT
117 31 1 0.41 -12.269 4.257 1.578 # HT
118 31 1 0.41 -10.644 3.891 2.052 # HT
119 32 2 -0.82 8.764 -10.531 -12.33 # OT
120 32 1 0.41 8.234 -10.227 -13.153 # HT
121 32 1 0.41 9.442 -11.212 -12.8 # HT
122 33 2 -0.82 8.365 -11.623 -1.451 # OT
123 33 1 0.41 8.985 -12.114 -2.126 # HT
124 33 1 0.41 8.006 -10.694 -1.859 # HT
125 34 2 -0.82 5.086 -5.184 0.684 # OT
126 34 1 0.41 5.718 -5.897 0.258 # HT
127 34 1 0.41 4.096 -5.287 0.498 # HT
128 35 2 -0.82 11.833 -10.966 -6.981 # OT
129 35 1 0.41 10.856 -10.845 -7.224 # HT
130 35 1 0.41 12.273 -10.181 -7.488 # HT
131 36 2 -0.82 -7.471 2.436 -5.209 # OT
132 36 1 0.41 -6.991 2.272 -6.071 # HT
133 36 1 0.41 -6.754 2.293 -4.486 # HT
134 37 2 -0.82 11.478 -9.992 -11.2 # OT
135 37 1 0.41 10.718 -9.825 -11.846 # HT
136 37 1 0.41 12.171 -10.634 -11.595 # HT
137 38 2 -0.82 3.934 -17.117 -15.793 # OT
138 38 1 0.41 3.335 -17.006 -16.68 # HT
139 38 1 0.41 4.376 -18.032 -15.835 # HT
140 39 2 -0.82 1.03 -11.124 -3.195 # OT
141 39 1 0.41 0.215 -10.525 -3.389 # HT
142 39 1 0.41 0.839 -11.839 -2.445 # HT
143 40 2 -0.82 -7.409 -8.646 -12.603 # OT
144 40 1 0.41 -7.969 -8.971 -13.4 # HT
145 40 1 0.41 -7.813 -7.812 -12.188 # HT
146 41 2 -0.82 -8.036 4.455 -17.25 # OT
147 41 1 0.41 -7.054 4.17 -17.136 # HT
148 41 1 0.41 -8.185 5.496 -17.219 # HT
149 42 2 -0.82 -4.65 2.566 -3.854 # OT
150 42 1 0.41 -3.755 3.033 -3.782 # HT
151 42 1 0.41 -4.436 1.796 -4.484 # HT
152 43 2 -0.82 -5.663 -11.568 -0.654 # OT
153 43 1 0.41 -4.776 -11.763 -1.1 # HT
154 43 1 0.41 -6.111 -10.894 -1.293 # HT
155 44 2 -0.82 -1.225 -3.833 -10.717 # OT
156 44 1 0.41 -0.997 -2.924 -10.269 # HT
157 44 1 0.41 -1.494 -3.375 -11.602 # HT
158 45 2 -0.82 -10.809 -5.213 -15.921 # OT
159 45 1 0.41 -10.584 -4.234 -15.743 # HT
160 45 1 0.41 -11.653 -5.255 -16.524 # HT
161 46 2 -0.82 12.01 -5.891 -10.058 # OT
162 46 1 0.41 12.194 -5.595 -9.072 # HT
163 46 1 0.41 12.829 -5.858 -10.675 # HT
164 47 2 -0.82 9.649 -9.96 -16.361 # OT
165 47 1 0.41 9.772 -10.984 -16.307 # HT
166 47 1 0.41 10.293 -9.583 -15.66 # HT
167 48 2 -0.82 0.785 2.236 -7.412 # OT
168 48 1 0.41 -0.113 2.66 -7.522 # HT
169 48 1 0.41 1.209 2.136 -8.336 # HT
170 49 2 -0.82 3.628 -11.843 -0.313 # OT
171 49 1 0.41 4.068 -10.999 0.058 # HT
172 49 1 0.41 4.212 -12.164 -1.052 # HT
173 50 2 -0.82 -7.715 3.625 -14.441 # OT
174 50 1 0.41 -8.067 2.694 -14.732 # HT
175 50 1 0.41 -6.834 3.902 -14.912 # HT
176 51 2 -0.82 9.394 4.012 -11.621 # OT
177 51 1 0.41 10.06 3.228 -11.352 # HT
178 51 1 0.41 8.913 4.412 -10.731 # HT
179 52 2 -0.82 0.117 -2.314 0.565 # OT
180 52 1 0.41 0.822 -2.758 1.218 # HT
181 52 1 0.41 0.089 -1.274 0.666 # HT
182 53 2 -0.82 4.129 -6.596 -10.711 # OT
183 53 1 0.41 3.767 -7.243 -11.431 # HT
184 53 1 0.41 4.035 -5.631 -11.011 # HT
185 54 2 -0.82 3.849 -17.621 -2.79 # OT
186 54 1 0.41 3.422 -18.147 -3.568 # HT
187 54 1 0.41 4.43 -18.45 -2.463 # HT
188 55 2 -0.82 5.327 -10.638 -13.278 # OT
189 55 1 0.41 5.048 -11.606 -13.197 # HT
190 55 1 0.41 6.061 -10.43 -13.95 # HT
191 56 2 -0.82 1.779 -14.696 1.402 # OT
192 56 1 0.41 2.627 -15.216 1.641 # HT
193 56 1 0.41 1.938 -13.68 1.314 # HT
194 57 2 -0.82 11.904 -9.498 -20.519 # OT
195 57 1 0.41 12.403 -9.556 -19.663 # HT
196 57 1 0.41 12.276 -8.555 -20.677 # HT
197 58 2 -0.82 2.701 -0.427 -21.297 # OT
198 58 1 0.41 2.938 0.12 -22.131 # HT
199 58 1 0.41 2.553 -1.322 -21.741 # HT
200 59 2 -0.82 5.334 -13.705 -14.028 # OT
201 59 1 0.41 6.153 -14.067 -13.567 # HT
202 59 1 0.41 4.503 -14.353 -14.005 # HT
203 60 2 -0.82 11.063 -16.359 -18.7 # OT
204 60 1 0.41 10.855 -16.818 -19.617 # HT
205 60 1 0.41 11.515 -15.49 -18.978 # HT
206 61 2 -0.82 -6.858 -13.978 -3.355 # OT
207 61 1 0.41 -6.802 -14.967 -3.656 # HT
208 61 1 0.41 -7.867 -13.617 -3.338 # HT
209 62 2 -0.82 -6.073 -10.599 -6.45 # OT
210 62 1 0.41 -6.017 -11.252 -5.645 # HT
211 62 1 0.41 -6.783 -11.09 -7.001 # HT
212 63 2 -0.82 2.521 -16.933 -10.036 # OT
213 63 1 0.41 1.941 -16.099 -10.213 # HT
214 63 1 0.41 3.017 -16.757 -9.164 # HT
215 64 2 -0.82 2.068 3.688 -0.804 # OT
216 64 1 0.41 2.015 2.748 -1.295 # HT
217 64 1 0.41 2.203 4.469 -1.451 # HT
218 65 2 -0.82 2.425 -18.001 -19.335 # OT
219 65 1 0.41 2.169 -17.214 -18.742 # HT
220 65 1 0.41 2.223 -17.784 -20.331 # HT
221 66 2 -0.82 4.407 4.554 -15.805 # OT
222 66 1 0.41 4.382 3.668 -16.316 # HT
223 66 1 0.41 5.307 4.513 -15.259 # HT
224 67 2 -0.82 -2.45 -14.695 -3.137 # OT
225 67 1 0.41 -1.742 -14.893 -3.856 # HT
226 67 1 0.41 -3.04 -14.012 -3.599 # HT
227 68 2 -0.82 6.566 -2.26 -5.664 # OT
228 68 1 0.41 7.395 -2.276 -6.302 # HT
229 68 1 0.41 6.615 -1.431 -5.095 # HT
230 69 2 -0.82 10.626 -11.986 -14.03 # OT
231 69 1 0.41 9.799 -12.246 -14.626 # HT
232 69 1 0.41 11.383 -11.624 -14.585 # HT
233 70 2 -0.82 -4.722 -0.214 -9.299 # OT
234 70 1 0.41 -4.521 0.63 -9.884 # HT
235 70 1 0.41 -5.4 0.026 -8.551 # HT
236 71 2 -0.82 11.726 -9.083 -4.35 # OT
237 71 1 0.41 11.364 -9.293 -3.373 # HT
238 71 1 0.41 10.901 -9.2 -4.962 # HT
239 72 2 -0.82 8.92 -9.755 -8.069 # OT
240 72 1 0.41 9.505 -8.984 -8.556 # HT
241 72 1 0.41 7.882 -9.672 -8.178 # HT
242 73 2 -0.82 10.371 -11.997 1.992 # OT
243 73 1 0.41 10.947 -11.19 2.354 # HT
244 73 1 0.41 10.381 -12.758 2.669 # HT
245 74 2 -0.82 -11.691 -10.442 0.446 # OT
246 74 1 0.41 -11.06 -9.769 0.833 # HT
247 74 1 0.41 -11.335 -11.008 -0.306 # HT
248 75 2 -0.82 10.719 -3.253 -20.262 # OT
249 75 1 0.41 9.913 -2.66 -20.354 # HT
250 75 1 0.41 11.284 -3.305 -21.158 # HT
251 76 2 -0.82 -9.361 -6.945 -6.207 # OT
252 76 1 0.41 -8.321 -6.791 -6.186 # HT
253 76 1 0.41 -9.494 -7.978 -6.103 # HT
254 77 2 -0.82 10.974 -8.668 -14.276 # OT
255 77 1 0.41 10.2 -8.109 -13.885 # HT
256 77 1 0.41 11.851 -8.143 -14.167 # HT
257 78 2 -0.82 6.323 -8.994 -8.826 # OT
258 78 1 0.41 5.672 -8.21 -8.521 # HT
259 78 1 0.41 6.453 -8.882 -9.846 # HT
260 79 2 -0.82 -3.196 -12.343 -18.407 # OT
261 79 1 0.41 -3.98 -13.033 -18.456 # HT
262 79 1 0.41 -2.482 -12.708 -17.714 # HT
263 80 2 -0.82 -5.4 -6.455 -12.252 # OT
264 80 1 0.41 -5.848 -7.382 -12.426 # HT
265 80 1 0.41 -5.73 -6.306 -11.302 # HT
266 81 2 -0.82 5.313 -2.905 -0.987 # OT
267 81 1 0.41 5.371 -3.873 -0.604 # HT
268 81 1 0.41 5.084 -2.998 -1.986 # HT
269 82 2 -0.82 7.285 -10.026 -14.907 # OT
270 82 1 0.41 7.923 -9.887 -15.74 # HT
271 82 1 0.41 6.91 -9.06 -14.738 # HT
272 83 2 -0.82 8.525 -12.635 -15.52 # OT
273 83 1 0.41 7.888 -13.232 -15.013 # HT
274 83 1 0.41 8.075 -12.553 -16.454 # HT
275 84 2 -0.82 2.897 -10.59 -10.873 # OT
276 84 1 0.41 2.917 -9.675 -11.405 # HT
277 84 1 0.41 3.685 -11.268 -10.971 # HT
278 85 2 -0.82 -5.893 3.725 -11.596 # OT
279 85 1 0.41 -6.31 4.404 -10.999 # HT
280 85 1 0.41 -6.507 3.249 -12.224 # HT
281 86 2 -0.82 -2.942 0.426 -15.548 # OT
282 86 1 0.41 -3.004 0.896 -16.451 # HT
283 86 1 0.41 -1.919 0.371 -15.313 # HT
284 87 2 -0.82 10.368 -5.131 -16.521 # OT
285 87 1 0.41 10.018 -5.459 -15.603 # HT
286 87 1 0.41 10.188 -4.158 -16.86 # HT
287 88 2 -0.82 4.831 -9.685 0.792 # OT
288 88 1 0.41 5.752 -9.187 0.708 # HT
289 88 1 0.41 5.02 -10.236 1.675 # HT
290 89 2 -0.82 9.193 -3.999 -7.122 # OT
291 89 1 0.41 8.847 -4.881 -6.743 # HT
292 89 1 0.41 9.986 -3.695 -6.555 # HT
293 90 2 -0.82 2.484 -2.909 -8.601 # OT
294 90 1 0.41 1.91 -3.735 -8.711 # HT
295 90 1 0.41 3.229 -2.879 -9.289 # HT
296 91 2 -0.82 -4.935 0.046 -5.864 # OT
297 91 1 0.41 -5.221 -0.981 -5.852 # HT
298 91 1 0.41 -4.443 0.293 -6.722 # HT
299 92 2 -0.82 7.576 5.159 -3.391 # OT
300 92 1 0.41 7.558 6.106 -3.714 # HT
301 92 1 0.41 7.646 4.551 -4.18 # HT
302 93 2 -0.82 -4.611 1.824 -14.115 # OT
303 93 1 0.41 -3.984 1.313 -14.787 # HT
304 93 1 0.41 -4.156 2.719 -13.921 # HT
305 94 2 -0.82 -6.326 1.766 -20.587 # OT
306 94 1 0.41 -5.337 1.508 -20.726 # HT
307 94 1 0.41 -6.433 1.676 -19.556 # HT
308 95 2 -0.82 -10.415 2.021 -14.59 # OT
309 95 1 0.41 -10.44 2.906 -15.131 # HT
310 95 1 0.41 -10.277 2.245 -13.617 # HT
311 96 2 -0.82 -3.129 -17.268 -9.367 # OT
312 96 1 0.41 -2.618 -18.185 -9.45 # HT
313 96 1 0.41 -4.053 -17.418 -9.01 # HT
314 97 2 -0.82 12.029 -3.116 1.563 # OT
315 97 1 0.41 12.956 -3.506 1.448 # HT
316 97 1 0.41 12.168 -2.092 1.623 # HT
317 98 2 -0.82 -4.393 -2.897 -10.025 # OT
318 98 1 0.41 -3.919 -2.819 -10.94 # HT
319 98 1 0.41 -4.611 -1.948 -9.7 # HT
320 99 2 -0.82 -7.42 0.273 -8.54 # OT
321 99 1 0.41 -7.326 1.121 -7.938 # HT
322 99 1 0.41 -7.801 -0.526 -7.939 # HT
323 100 2 -0.82 -11.284 -15.378 -12.932 # OT
324 100 1 0.41 -12.069 -14.799 -12.716 # HT
325 100 1 0.41 -11.113 -15.194 -13.927 # HT
326 101 2 -0.82 5.582 1.179 -10.29 # OT
327 101 1 0.41 5.526 0.791 -9.35 # HT
328 101 1 0.41 4.568 1.41 -10.435 # HT
329 102 2 -0.82 4.998 1.294 -13.639 # OT
330 102 1 0.41 5.529 0.861 -14.369 # HT
331 102 1 0.41 5.474 0.993 -12.766 # HT
332 103 2 -0.82 4.892 -15.168 -11.311 # OT
333 103 1 0.41 4.608 -14.222 -11.469 # HT
334 103 1 0.41 4.341 -15.815 -11.897 # HT
335 104 2 -0.82 2.851 5.589 -7.301 # OT
336 104 1 0.41 3.207 4.702 -7.703 # HT
337 104 1 0.41 2.944 5.424 -6.309 # HT
338 105 2 -0.82 1.963 2.525 -12.942 # OT
339 105 1 0.41 1.593 2.525 -13.899 # HT
340 105 1 0.41 2.171 3.492 -12.828 # HT
341 106 2 -0.82 9.685 3.752 -2.051 # OT
342 106 1 0.41 9.069 4.297 -2.681 # HT
343 106 1 0.41 10.664 3.659 -2.44 # HT
344 107 2 -0.82 0.08 -12.945 -1.238 # OT
345 107 1 0.41 -0.428 -13.417 -1.99 # HT
346 107 1 0.41 -0.547 -12.795 -0.398 # HT
347 108 2 -0.82 2.415 -7.882 -20.21 # OT
348 108 1 0.41 3.368 -7.388 -20.157 # HT
349 108 1 0.41 2.609 -8.867 -20.182 # HT
350 109 2 -0.82 -2.312 1.523 -18.066 # OT
351 109 1 0.41 -1.539 1.095 -18.55 # HT
352 109 1 0.41 -3.133 1.184 -18.495 # HT
353 110 2 -0.82 6.375 0.16 -4.499 # OT
354 110 1 0.41 5.958 1.061 -4.354 # HT
355 110 1 0.41 6.913 -0.305 -3.706 # HT
356 111 2 -0.82 1.212 1.873 -18.605 # OT
357 111 1 0.41 1.464 2.164 -19.534 # HT
358 111 1 0.41 0.665 2.558 -18.146 # HT
359 112 2 -0.82 11.376 -13.917 -20.618 # OT
360 112 1 0.41 12.388 -14.248 -20.677 # HT
361 112 1 0.41 10.922 -14.839 -20.704 # HT
362 113 2 -0.82 -0.26 1.213 -4.57 # OT
363 113 1 0.41 -1.181 1.013 -4.165 # HT
364 113 1 0.41 0.119 0.264 -4.659 # HT
365 114 2 -0.82 2.14 5.06 -14.366 # OT
366 114 1 0.41 2.819 4.677 -15.059 # HT
367 114 1 0.41 1.199 5.049 -14.781 # HT
368 115 2 -0.82 2.03 -5.002 0.183 # OT
369 115 1 0.41 2.284 -6.003 0.123 # HT
370 115 1 0.41 1.332 -4.803 -0.588 # HT
371 116 2 -0.82 -3.095 4.366 -14.141 # OT
372 116 1 0.41 -3.739 5.15 -13.889 # HT
373 116 1 0.41 -2.389 4.272 -13.374 # HT
374 117 2 -0.82 7.649 -17.398 1.412 # OT
375 117 1 0.41 8.233 -16.738 0.85 # HT
376 117 1 0.41 7.74 -18.384 1.083 # HT
377 118 2 -0.82 2.01 -4.093 -12.045 # OT
378 118 1 0.41 1.091 -3.876 -11.733 # HT
379 118 1 0.41 2.652 -3.752 -11.281 # HT
380 119 2 -0.82 -5.898 -12.009 -16.412 # OT
381 119 1 0.41 -5.738 -12.611 -17.214 # HT
382 119 1 0.41 -5.597 -11.067 -16.663 # HT
383 120 2 -0.82 -0.152 2.13 2.848 # OT
384 120 1 0.41 -0.929 2.684 2.452 # HT
385 120 1 0.41 0.651 2.677 -21.016 # HT
386 121 2 -0.82 -2.435 4.367 -3.629 # OT
387 121 1 0.41 -2.592 5.384 -3.607 # HT
388 121 1 0.41 -1.915 4.095 -2.765 # HT
389 122 2 -0.82 -8.614 -1.419 -6.907 # OT
390 122 1 0.41 -8.559 -2.473 -6.78 # HT
391 122 1 0.41 -9.567 -1.038 -6.984 # HT
392 123 2 -0.82 -9.574 -12.732 -8.289 # OT
393 123 1 0.41 -9.661 -11.72 -8.183 # HT
394 123 1 0.41 -10.418 -13.069 -8.744 # HT
395 124 2 -0.82 -1.89 -1.542 -5.385 # OT
396 124 1 0.41 -2.335 -0.992 -4.685 # HT
397 124 1 0.41 -2.169 -1.076 -6.272 # HT
398 125 2 -0.82 -1.28 -17.719 -19.948 # OT
399 125 1 0.41 -0.825 -17.134 -20.706 # HT
400 125 1 0.41 -2.251 -17.587 -19.968 # HT
401 126 2 -0.82 -3.64 4.409 0.964 # OT
402 126 1 0.41 -4.414 4.709 1.536 # HT
403 126 1 0.41 -4.279 3.854 0.346 # HT
404 127 2 -0.82 -5.114 -8.285 -7.726 # OT
405 127 1 0.41 -5.379 -8.887 -6.97 # HT
406 127 1 0.41 -4.176 -8.726 -7.795 # HT
407 128 2 -0.82 5.686 -15.186 -0.191 # OT
408 128 1 0.41 5.278 -15.073 -1.136 # HT
409 128 1 0.41 6.305 -15.947 -0.24 # HT
410 129 2 -0.82 -10.112 -4.777 1.315 # OT
411 129 1 0.41 -9.137 -4.624 1.601 # HT
412 129 1 0.41 -10.076 -4.918 0.321 # HT
413 130 2 -0.82 -7.196 -2.812 -9.17 # OT
414 130 1 0.41 -7.961 -2.53 -8.576 # HT
415 130 1 0.41 -6.338 -2.431 -8.8 # HT
416 131 2 -0.82 -11.071 -16.876 -10.407 # OT
417 131 1 0.41 -11.359 -16.288 -11.24 # HT
418 131 1 0.41 -10.251 -16.292 -10.172 # HT
419 132 2 -0.82 9.266 -9.863 -19.912 # OT
420 132 1 0.41 10.285 -9.697 -20.003 # HT
421 132 1 0.41 8.9 -8.88 -19.959 # HT
422 133 2 -0.82 -0.315 -11.675 -9.889 # OT
423 133 1 0.41 -0.901 -12.195 -9.217 # HT
424 133 1 0.41 0.138 -10.981 -9.308 # HT
425 134 2 -0.82 -7.688 -13.328 -20.172 # OT
426 134 1 0.41 -7.311 -12.568 -19.592 # HT
427 134 1 0.41 -8.652 -13.04 -20.286 # HT
428 135 2 -0.82 -2.999 -13.373 -10.654 # OT
429 135 1 0.41 -3.933 -12.916 -10.398 # HT
430 135 1 0.41 -2.997 -14.215 -11.264 # HT
431 136 2 -0.82 7.484 5.956 -18.708 # OT
432 136 1 0.41 7.63 6.923 -18.462 # HT
433 136 1 0.41 6.494 5.788 -18.56 # HT
434 137 2 -0.82 9.662 1.544 -5.818 # OT
435 137 1 0.41 8.779 1.973 -5.59 # HT
436 137 1 0.41 10.136 1.204 -4.947 # HT
437 138 2 -0.82 -1.176 -4.633 -18.909 # OT
438 138 1 0.41 -0.651 -5.277 -19.508 # HT
439 138 1 0.41 -0.436 -4.198 -18.37 # HT
440 139 2 -0.82 8.461 -12.352 -5.152 # OT
441 139 1 0.41 9.11 -12.813 -4.463 # HT
442 139 1 0.41 7.503 -12.709 -5.065 # HT
443 140 2 -0.82 7.108 -16.746 -4.363 # OT
444 140 1 0.41 7.581 -15.935 -4.819 # HT
445 140 1 0.41 6.456 -17.084 -5.044 # HT
446 141 2 -0.82 -9.366 -10.058 -8.075 # OT
447 141 1 0.41 -10.141 -9.633 -8.597 # HT
448 141 1 0.41 -8.559 -9.639 -8.492 # HT
449 142 2 -0.82 4.164 -0.347 -19.013 # OT
450 142 1 0.41 3.73 -0.791 -18.183 # HT
451 142 1 0.41 3.583 -0.381 -19.868 # HT
452 143 2 -0.82 -9.459 -8.917 1.319 # OT
453 143 1 0.41 -9.423 -8.452 2.225 # HT
454 143 1 0.41 -8.608 -9.505 1.419 # HT
455 144 2 -0.82 -10.73 -9.472 -17.816 # OT
456 144 1 0.41 -10.24 -8.601 -17.974 # HT
457 144 1 0.41 -9.947 -10.118 -17.657 # HT
458 145 2 -0.82 -3.874 -16.489 2.834 # OT
459 145 1 0.41 -3.859 -16.413 1.82 # HT
460 145 1 0.41 -3.824 -15.518 3.167 # HT
461 146 2 -0.82 1.737 -10.401 -8.441 # OT
462 146 1 0.41 2.458 -10.454 -7.705 # HT
463 146 1 0.41 2.116 -10.504 -9.407 # HT
464 147 2 -0.82 -7.572 -16.646 -0.655 # OT
465 147 1 0.41 -7.217 -15.715 -0.498 # HT
466 147 1 0.41 -8.57 -16.604 -0.35 # HT
467 148 2 -0.82 4.952 -6.948 -19.991 # OT
468 148 1 0.41 5.326 -5.979 -20.137 # HT
469 148 1 0.41 5.725 -7.58 -20.269 # HT
470 149 2 -0.82 -3.167 -11.459 -2.621 # OT
471 149 1 0.41 -2.369 -10.865 -2.891 # HT
472 149 1 0.41 -3.735 -11.742 -3.435 # HT
473 150 2 -0.82 5.095 -18.247 2.426 # OT
474 150 1 0.41 4.993 -18.552 3.384 # HT
475 150 1 0.41 6.027 -17.826 2.361 # HT
476 151 2 -0.82 -1.672 0.7 -12.071 # OT
477 151 1 0.41 -1.657 1.294 -12.897 # HT
478 151 1 0.41 -2.555 0.802 -11.52 # HT
479 152 2 -0.82 1.582 1.581 -2.148 # OT
480 152 1 0.41 1.323 0.662 -1.732 # HT
481 152 1 0.41 1.574 1.528 -3.182 # HT
482 153 2 -0.82 0.893 -14.956 -10.196 # OT
483 153 1 0.41 0.845 -14.649 -11.155 # HT
484 153 1 0.41 -0.018 -15.184 -9.716 # HT
485 154 2 -0.82 -9.081 -18.107 -7.07 # OT
486 154 1 0.41 -8.799 -18.829 -7.729 # HT
487 154 1 0.41 -10.077 -17.788 -7.3 # HT
488 155 2 -0.82 -2.793 0.352 -3.361 # OT
489 155 1 0.41 -3.72 0.73 -3.19 # HT
490 155 1 0.41 -2.414 0.216 -2.415 # HT
491 156 2 -0.82 -3.665 -5.932 -15.734 # OT
492 156 1 0.41 -4.162 -6.303 -14.934 # HT
493 156 1 0.41 -3.06 -5.348 -15.175 # HT
494 157 2 -0.82 -5.461 -17.889 -1.547 # OT
495 157 1 0.41 -6.359 -17.546 -1.167 # HT
496 157 1 0.41 -5.46 -18.94 -1.503 # HT
497 158 2 -0.82 -8.399 -13.849 -16.614 # OT
498 158 1 0.41 -7.794 -13.795 -17.415 # HT
499 158 1 0.41 -8.028 -14.531 -15.92 # HT
500 159 2 -0.82 11.659 1.097 -18.941 # OT
501 159 1 0.41 11.552 0.319 -19.575 # HT
502 159 1 0.41 11.161 0.828 -18.082 # HT
503 160 2 -0.82 -7.246 -9.074 -9.237 # OT
504 160 1 0.41 -6.779 -9.746 -9.84 # HT
505 160 1 0.41 -6.52 -8.569 -8.73 # HT
506 161 2 -0.82 -8.092 -4.034 -21.309 # OT
507 161 1 0.41 -7.353 -3.34 -21.474 # HT
508 161 1 0.41 -7.634 -4.748 -20.7 # HT
509 162 2 -0.82 9.164 4.104 -19.852 # OT
510 162 1 0.41 8.72 4.964 -19.51 # HT
511 162 1 0.41 9.969 3.855 -19.27 # HT
512 163 2 -0.82 3.369 4.51 -4.726 # OT
513 163 1 0.41 2.427 4.255 -4.527 # HT
514 163 1 0.41 3.886 3.682 -5.061 # HT
515 164 2 -0.82 0.755 -0.391 -11.665 # OT
516 164 1 0.41 0.953 -1.104 -12.414 # HT
517 164 1 0.41 -0.056 0.181 -12.019 # HT
518 165 2 -0.82 7.392 -14.645 -19.313 # OT
519 165 1 0.41 7.628 -14.95 -20.228 # HT
520 165 1 0.41 6.492 -14.847 -18.9 # HT
521 166 2 -0.82 -10.26 3.087 -1.116 # OT
522 166 1 0.41 -10.507 3.452 -0.17 # HT
523 166 1 0.41 -9.963 3.847 -1.778 # HT
524 167 2 -0.82 -10.794 -15.229 -1.814 # OT
525 167 1 0.41 -11.143 -16.045 -2.392 # HT
526 167 1 0.41 -10.646 -15.707 -0.918 # HT
527 168 2 -0.82 -6.907 0.978 -15.188 # OT
528 168 1 0.41 -5.919 1.207 -14.991 # HT
529 168 1 0.41 -6.993 0.201 -14.466 # HT
530 169 2 -0.82 -10.742 5.428 -12.577 # OT
531 169 1 0.41 -11.271 4.594 -12.441 # HT
532 169 1 0.41 -10.72 6.012 -11.678 # HT
533 170 2 -0.82 -9.192 -1.845 -17.695 # OT
534 170 1 0.41 -9.296 -0.868 -17.438 # HT
535 170 1 0.41 -9.551 -1.932 -18.658 # HT
536 171 2 -0.82 -11.436 -1.47 -13.363 # OT
537 171 1 0.41 -10.815 -1.776 -14.127 # HT
538 171 1 0.41 -12.205 -0.868 -13.673 # HT
539 172 2 -0.82 -1.757 -15.048 -9.11 # OT
540 172 1 0.41 -2.274 -15.928 -9.227 # HT
541 172 1 0.41 -2.307 -14.373 -9.685 # HT
542 173 2 -0.82 -2.667 -16.927 -15.528 # OT
543 173 1 0.41 -2.116 -17.188 -14.687 # HT
544 173 1 0.41 -2.662 -15.909 -15.521 # HT
545 174 2 -0.82 -6.869 -16.569 -4.23 # OT
546 174 1 0.41 -6.193 -16.867 -3.527 # HT
547 174 1 0.41 -7.468 -17.406 -4.427 # HT
548 175 2 -0.82 -11.578 2.898 -11.523 # OT
549 175 1 0.41 -10.614 2.663 -11.307 # HT
550 175 1 0.41 -12.066 2.127 -11.075 # HT
551 176 2 -0.82 6.258 -4.284 -8.598 # OT
552 176 1 0.41 6.979 -4.941 -8.381 # HT
553 176 1 0.41 6.154 -3.755 -7.733 # HT
554 177 2 -0.82 2.851 -17.574 0.081 # OT
555 177 1 0.41 3.549 -17.708 -0.661 # HT
556 177 1 0.41 2.724 -16.579 0.093 # HT
557 178 2 -0.82 10.083 -13.005 -3.023 # OT
558 178 1 0.41 11.008 -12.834 -3.426 # HT
559 178 1 0.41 10.38 -12.903 -2.001 # HT
560 179 2 -0.82 -7.454 -7.347 -2.938 # OT
561 179 1 0.41 -8.388 -7.428 -2.504 # HT
562 179 1 0.41 -6.897 -8.183 -2.781 # HT
563 180 2 -0.82 -6.362 -1.863 0.617 # OT
564 180 1 0.41 -5.34 -2.07 0.486 # HT
565 180 1 0.41 -6.972 -2.01 -0.168 # HT
566 181 2 -0.82 -8.052 -18.148 2.641 # OT
567 181 1 0.41 -7.609 -17.279 2.389 # HT
568 181 1 0.41 -7.422 5.294 2.418 # HT
569 182 2 -0.82 5.336 -6.423 -5.113 # OT
570 182 1 0.41 4.547 -5.906 -4.685 # HT
571 182 1 0.41 5.245 -6.468 -6.14 # HT
572 183 2 -0.82 -0.803 -12.578 -16.54 # OT
573 183 1 0.41 -0.883 -11.582 -16.308 # HT
574 183 1 0.41 0.207 -12.793 -16.618 # HT
575 184 2 -0.82 -10.352 3.185 -20.605 # OT
576 184 1 0.41 -11.09 3.085 -19.877 # HT
577 184 1 0.41 -9.558 2.678 -20.141 # HT
578 185 2 -0.82 -3.671 -14.525 -6.529 # OT
579 185 1 0.41 -3.53 -14.574 -7.566 # HT
580 185 1 0.41 -2.725 -14.564 -6.054 # HT
581 186 2 -0.82 -2.278 -17.096 0.37 # OT
582 186 1 0.41 -2.571 -17.911 -0.171 # HT
583 186 1 0.41 -1.655 -17.53 1.058 # HT
584 187 2 -0.82 -1.281 4.646 1.983 # OT
585 187 1 0.41 -1.382 5.311 2.797 # HT
586 187 1 0.41 -2.247 4.568 1.628 # HT
587 188 2 -0.82 -6.941 -18.011 -11.149 # OT
588 188 1 0.41 -7.251 -17.033 -11.186 # HT
589 188 1 0.41 -6.228 -18.223 -11.86 # HT
590 189 2 -0.82 -4.477 -9.888 -17.385 # OT
591 189 1 0.41 -3.865 -9.139 -17.59 # HT
592 189 1 0.41 -3.918 -10.662 -17.529 # HT
593 190 2 -0.82 4.889 5.149 -10.227 # OT
594 190 1 0.41 4.291 5.923 -10.611 # HT
595 190 1 0.41 4.962 4.502 -11.001 # HT
596 191 2 -0.82 -10.219 -5.358 -11.992 # OT
597 191 1 0.41 -10.556 -6.168 -12.475 # HT
598 191 1 0.41 -9.244 -5.578 -11.599 # HT
599 192 2 -0.82 -0.33 -8.943 0.893 # OT
600 192 1 0.41 -0.631 -8.557 1.814 # HT
601 192 1 0.41 -0.363 -9.973 0.886 # HT
602 193 2 -0.82 6.876 -6.721 -0.744 # OT
603 193 1 0.41 7.396 -5.908 -1.117 # HT
604 193 1 0.41 6.347 -7.15 -1.519 # HT
605 194 2 -0.82 -8.627 2.296 -18.777 # OT
606 194 1 0.41 -8.457 3.261 -18.386 # HT
607 194 1 0.41 -9.031 1.624 -18.107 # HT
608 195 2 -0.82 -8.01 5.271 -4.791 # OT
609 195 1 0.41 -8.37 5.622 -5.707 # HT
610 195 1 0.41 -7.744 4.284 -4.916 # HT
611 196 2 -0.82 4.201 -7.357 -8.004 # OT
612 196 1 0.41 3.335 -7.343 -7.484 # HT
613 196 1 0.41 3.9 -7.157 -8.971 # HT
614 197 2 -0.82 10.213 2.477 -9.45 # OT
615 197 1 0.41 9.346 2.331 -8.895 # HT
616 197 1 0.41 10.826 1.685 -9.545 # HT
617 198 2 -0.82 8.589 -9.622 -5.374 # OT
618 198 1 0.41 8.495 -10.662 -5.447 # HT
619 198 1 0.41 8.531 -9.341 -6.386 # HT
620 199 2 -0.82 -0.002 -10.276 -20.052 # OT
621 199 1 0.41 -0.048 -9.581 -19.343 # HT
622 199 1 0.41 0.96 -10.537 -19.846 # HT
623 200 2 -0.82 -5.259 -17.715 -13.635 # OT
624 200 1 0.41 -4.773 -16.869 -13.807 # HT
625 200 1 0.41 -6.23 -17.69 -13.862 # HT
626 201 2 -0.82 -4.392 -4.941 -6.269 # OT
627 201 1 0.41 -3.885 -4.66 -7.125 # HT
628 201 1 0.41 -3.684 -4.79 -5.49 # HT
629 202 2 -0.82 9.918 -0.297 -20.985 # OT
630 202 1 0.41 9.106 -0.821 -21.196 # HT
631 202 1 0.41 9.426 0.596 -21.047 # HT
632 203 2 -0.82 -5.898 -10.697 -11.769 # OT
633 203 1 0.41 -6.23 -11.354 -12.476 # HT
634 203 1 0.41 -6.45 -9.899 -11.974 # HT
635 204 2 -0.82 -10.846 -6.708 -3.991 # OT
636 204 1 0.41 -11.594 -7.411 -3.849 # HT
637 204 1 0.41 -10.097 -6.897 -4.701 # HT
638 205 2 -0.82 2.75 -7.564 -0.377 # OT
639 205 1 0.41 3.571 -8.099 -0.189 # HT
640 205 1 0.41 1.988 -8.103 0.011 # HT
641 206 2 -0.82 7.894 -8.704 0.851 # OT
642 206 1 0.41 8.601 -9.213 0.33 # HT
643 206 1 0.41 7.689 -7.78 0.38 # HT
644 207 2 -0.82 5.503 -3.352 -17.888 # OT
645 207 1 0.41 6.223 -2.566 -17.862 # HT
646 207 1 0.41 5.875 -4.315 -17.819 # HT
647 208 2 -0.82 -11.208 3.691 -5.236 # OT
648 208 1 0.41 -11.732 3.481 -4.4 # HT
649 208 1 0.41 -10.754 4.578 -5.223 # HT
650 209 2 -0.82 -8.789 -11.067 -16.862 # OT
651 209 1 0.41 -8.066 -10.832 -17.581 # HT
652 209 1 0.41 -8.677 -12.074 -16.777 # HT
653 210 2 -0.82 2.897 -3.127 2.342 # OT
654 210 1 0.41 2.613 -3.839 1.609 # HT
655 210 1 0.41 2.776 -3.417 3.32 # HT
656 211 2 -0.82 -0.836 4.346 -1.008 # OT
657 211 1 0.41 0.146 4.255 -1.157 # HT
658 211 1 0.41 -1.032 4.1 -0.051 # HT
659 212 2 -0.82 6.811 -0.91 -19.133 # OT
660 212 1 0.41 7.066 -1.408 -20.032 # HT
661 212 1 0.41 5.744 -0.913 -19.196 # HT
662 213 2 -0.82 12.05 -0.11 1.713 # OT
663 213 1 0.41 11.196 -0.306 2.197 # HT
664 213 1 0.41 12.082 0.922 1.947 # HT
665 214 2 -0.82 -5.536 -13.933 -18.181 # OT
666 214 1 0.41 -5.563 -14.725 -17.507 # HT
667 214 1 0.41 -5.911 -14.343 -19.02 # HT
668 215 2 -0.82 8.579 -4.826 -2.044 # OT
669 215 1 0.41 8.646 -3.955 -1.532 # HT
670 215 1 0.41 9.384 -5.398 -1.843 # HT
671 216 2 -0.82 -10.502 3.927 -16.193 # OT
672 216 1 0.41 -9.598 4.211 -16.643 # HT
673 216 1 0.41 -11.13 4.711 -15.942 # HT
674 217 2 -0.82 11.124 0.215 -3.255 # OT
675 217 1 0.41 11.932 -0.358 -3.478 # HT
676 217 1 0.41 10.902 0.076 -2.25 # HT
677 218 2 -0.82 -5.249 0.245 -1.572 # OT
678 218 1 0.41 -6.135 0.723 -1.524 # HT
679 218 1 0.41 -4.762 0.394 -0.678 # HT
680 219 2 -0.82 -3.088 -6.266 -18.17 # OT
681 219 1 0.41 -2.268 -5.634 -18.214 # HT
682 219 1 0.41 -3.541 -6.197 -17.208 # HT
683 220 2 -0.82 0.788 -0.741 -19.162 # OT
684 220 1 0.41 0.888 0.206 -18.763 # HT
685 220 1 0.41 1.291 -0.477 -20.03 # HT
686 221 2 -0.82 10.831 -16.921 -3.08 # OT
687 221 1 0.41 10.353 -17.678 -3.596 # HT
688 221 1 0.41 11.14 -16.224 -3.765 # HT
689 222 2 -0.82 5.966 -18.193 -6.513 # OT
690 222 1 0.41 5.109 -18.247 -7.042 # HT
691 222 1 0.41 6.67 -18.153 -7.283 # HT
692 223 2 -0.82 3.704 -1.91 -6.27 # OT
693 223 1 0.41 4.741 -2.004 -6.403 # HT
694 223 1 0.41 3.345 -2.283 -7.184 # HT
695 224 2 -0.82 -5.842 -14.451 -12.219 # OT
696 224 1 0.41 -6.008 -13.888 -11.39 # HT
697 224 1 0.41 -4.94 -14.948 -12.183 # HT
698 225 2 -0.82 -7.242 -12.276 -13.445 # OT
699 225 1 0.41 -6.938 -12.16 -14.455 # HT
700 225 1 0.41 -6.864 -13.255 -13.186 # HT
701 226 2 -0.82 5.519 -15.366 -17.191 # OT
702 226 1 0.41 4.995 -15.958 -16.515 # HT
703 226 1 0.41 5.35 -14.37 -16.984 # HT
704 227 2 -0.82 -1.157 -15.065 -5.367 # OT
705 227 1 0.41 -0.331 -14.494 -5.647 # HT
706 227 1 0.41 -0.933 -16.071 -5.172 # HT
707 228 2 -0.82 -3.383 -4.789 -12.847 # OT
708 228 1 0.41 -2.905 -4.336 -12.002 # HT
709 228 1 0.41 -4.188 -5.393 -12.655 # HT
710 229 2 -0.82 -8.807 2.95 -11.796 # OT
711 229 1 0.41 -8.564 3.326 -12.704 # HT
712 229 1 0.41 -8.232 2.085 -11.613 # HT
713 230 2 -0.82 -0.685 -3.979 -1.616 # OT
714 230 1 0.41 -0.198 -3.452 -0.806 # HT
715 230 1 0.41 -1.415 -4.571 -1.192 # HT
716 231 2 -0.82 6.364 -7.626 -14.39 # OT