 DBCSR| Multiplication driver                                                SMM
 DBCSR| Multiplication stack size                                           1000
 DBCSR| Multiplication size stacks                                             0
 DBCSR| Use subcommunicators                                                   T
 DBCSR| Use MPI combined types                                                 F
 DBCSR| Use MPI memory allocation                                              T
 DBCSR| Use Communication thread                                               T
 DBCSR| Communication thread load                                            100


  **** **** ******  **  PROGRAM STARTED AT               2016-12-23 21:15:35.264
 ***** ** ***  *** **   PROGRAM STARTED ON                             midway532
 **    ****   ******    PROGRAM STARTED BY                                      
 ***** **    ** ** **   PROGRAM PROCESS ID                                  2416
  **** **  *******  **  PROGRAM STARTED IN /project/gavoth/hmayes/asp_glu_in_wat
                                           er/glu_3.2_cp2k/cp2k_files

 CP2K| version string:                                        CP2K version 2.4.0
 CP2K| source code revision number:                                        12993
 CP2K| is freely available from                             http://www.cp2k.org/
 CP2K| Program compiled at                          Tue Aug 20 13:25:30 CDT 2013
 CP2K| Program compiled on                                         midway-login1
 CP2K| Program compiled for                                  Linux-x86-64-midway
 CP2K| Input file name                                          glu_3.0_1.075.in
 
 GLOBAL| Force Environment number                                              1
 GLOBAL| Basis set file name                  ../input/cp2k_files/GTH_BASIS_SETS
 GLOBAL| Geminal file name                                         BASIS_GEMINAL
 GLOBAL| Potential file name                  ../input/cp2k_files/GTH_POTENTIALS
 GLOBAL| MM Potential file name                                     MM_POTENTIAL
 GLOBAL| Coordinate file name               ../fix_min/glu_3.0_1.075_wrapped.pdb
 GLOBAL| Method name                                                        CP2K
 GLOBAL| Project name                                              glu_3.0_1.075
 GLOBAL| Preferred FFT library                                             FFTW3
 GLOBAL| Run type                                                   ENERGY_FORCE
 GLOBAL| All-to-all communication in single precision                          F
 GLOBAL| FFTs using library dependent lengths                                  F
 GLOBAL| Global print level                                               MEDIUM
 GLOBAL| Total number of message passing processes                            20
 GLOBAL| Number of threads for this process                                    1
 GLOBAL| This output is from process                                           0

 MEMORY| system memory details [Kb]
 MEMORY|                        rank 0           min           max       average
 MEMORY| MemTotal             66076096      66076096      66076096      66076096
 MEMORY| MemFree              60782320      60782320      60843700      60815744
 MEMORY| Buffers                     0             0             0             0
 MEMORY| Cached                1260948       1260948       1260948       1260948
 MEMORY| Slab                   247692        247692        247692        247692
 MEMORY| SReclaimable            34516         34516         34516         34516
 MEMORY| MemLikelyFree        62077784      62077784      62139164      62111208


 *** Fundamental physical constants (SI units) ***

 *** Literature: B. J. Mohr and B. N. Taylor,
 ***             CODATA recommended values of the fundamental physical
 ***             constants: 2006, Web Version 5.1
 ***             http://physics.nist.gov/constants

 Speed of light in vacuum [m/s]                             2.99792458000000E+08
 Magnetic constant or permeability of vacuum [N/A**2]       1.25663706143592E-06
 Electric constant or permittivity of vacuum [F/m]          8.85418781762039E-12
 Planck constant (h) [J*s]                                  6.62606896000000E-34
 Planck constant (h-bar) [J*s]                              1.05457162825177E-34
 Elementary charge [C]                                      1.60217648700000E-19
 Electron mass [kg]                                         9.10938215000000E-31
 Electron g factor [ ]                                     -2.00231930436220E+00
 Proton mass [kg]                                           1.67262163700000E-27
 Fine-structure constant                                    7.29735253760000E-03
 Rydberg constant [1/m]                                     1.09737315685270E+07
 Avogadro constant [1/mol]                                  6.02214179000000E+23
 Boltzmann constant [J/K]                                   1.38065040000000E-23
 Atomic mass unit [kg]                                      1.66053878200000E-27
 Bohr radius [m]                                            5.29177208590000E-11

 *** Conversion factors ***

 [u] -> [a.u.]                                              1.82288848426455E+03
 [Angstrom] -> [Bohr] = [a.u.]                              1.88972613288564E+00
 [a.u.] = [Bohr] -> [Angstrom]                              5.29177208590000E-01
 [a.u.] -> [s]                                              2.41888432650478E-17
 [a.u.] -> [fs]                                             2.41888432650478E-02
 [a.u.] -> [J]                                              4.35974393937059E-18
 [a.u.] -> [K]                                              3.15774647902944E+05
 [a.u.] -> [kJ/mol]                                         2.62549961709828E+03
 [a.u.] -> [kcal/mol]                                       6.27509468713739E+02
 [a.u.] -> [Pa]                                             2.94210107994716E+13
 [a.u.] -> [bar]                                            2.94210107994716E+08
 [a.u.] -> [atm]                                            2.90362800883016E+08
 [a.u.] -> [eV]                                             2.72113838565563E+01
 [a.u.] -> [Hz]                                             6.57968392072181E+15
 [a.u.] -> [1/cm] (wave numbers)                            2.19474631370540E+05
 [a.u./Bohr**2] -> [1/cm]                                   5.14048714338585E+03
 


                      ************* ******** ***********   
                     ************* **********************  
                     ****     **** ****      ***********   
                     ******** ****  *******     ****       
                     *******  ****   *******   ****        
                     ****     ****       ****  ****        
                     ****     **** **********  ****        
                      ****     **** ********    ****       
                     FRONTIERS IN SIMULATION TECHNOLOGY    
                                                           
                        C.J. Mundy, S. Balasubramanian,    
                     Ken Bagchi, J. Hutter, Ari Seitsonen  
                      IFW Kuo, T. Laino, J. VandeVondele   
                                 Version 1.0               

                                                           


 CELL| Volume [angstrom^3]:                                            14259.422
 CELL| Vector a [angstrom]:      24.249     0.000     0.000    |a| =      24.249
 CELL| Vector b [angstrom]:       0.000    24.249     0.000    |b| =      24.249
 CELL| Vector c [angstrom]:       0.000     0.000    24.249    |c| =      24.249
 CELL| Angle (b,c), alpha [degree]:                                       90.000
 CELL| Angle (a,c), beta  [degree]:                                       90.000
 CELL| Angle (a,b), gamma [degree]:                                       90.000
 CELL| Orthorhombic:                                                         YES

 CELL_REF| Volume [angstrom^3]:                                        14259.422
 CELL_REF| Vector a [angstrom    24.249     0.000     0.000    |a| =      24.249
 CELL_REF| Vector b [angstrom     0.000    24.249     0.000    |b| =      24.249
 CELL_REF| Vector c [angstrom     0.000     0.000    24.249    |c| =      24.249
 CELL_REF| Angle (b,c), alpha [degree]:                                   90.000
 CELL_REF| Angle (a,c), beta  [degree]:                                   90.000
 CELL_REF| Angle (a,b), gamma [degree]:                                   90.000
 CELL_REF| Orthorhombic:                                                     YES

 EWALD| Summation is done by:                                               SPME
 EWALD| Alpha parameter [       ANGSTROM^-1]                              0.3500
 EWALD| Real Space Cutoff [          ANGSTROM]                            9.6398
 EWALD| G-space max. Miller index                         24        24        24
 EWALD| Spline interpolation order                                             6

 CELL_TOP| Volume [angstrom^3]:                                        14259.422
 CELL_TOP| Vector a [angstrom    24.249     0.000     0.000    |a| =      24.249
 CELL_TOP| Vector b [angstrom     0.000    24.249     0.000    |b| =      24.249
 CELL_TOP| Vector c [angstrom     0.000     0.000    24.249    |c| =      24.249
 CELL_TOP| Angle (b,c), alpha [degree]:                                   90.000
 CELL_TOP| Angle (a,c), beta  [degree]:                                   90.000
 CELL_TOP| Angle (a,b), gamma [degree]:                                   90.000
 CELL_TOP| Orthorhombic:                                                     YES
 
 FORCEFIELD| WARNING: A non Critical ForceField parameter is missing! CP2K GOES!
 FORCEFIELD| Non critical parameters are:Urey-Bradley,Torsions,Impropers, Opbends and 1-4
 FORCEFIELD| All missing parameters will not contribute to the potential energy!
 FORCEFIELD| Activate the print key FF_INFO to have a list of missing parameters
 
 CHARGE_INFO| Total Charge of the Classical System:                     0.000000

 SPLINE_INFO| Generating 210 splines for the NONBONDED14 interactions due to 20 different atomic kinds
 ...21
 ...42
 ...63
 ...84
 ...105
 ...126
 ...147
 ...168
 ...189
 ...210

 SPLINE_INFO| Number of unique splines computed:            96

 SPLINE_INFO| Done

 SPLINE_INFO| Generating 210 splines for the NONBONDED interactions due to 20 different atomic kinds
 ...21
 ...42
 ...63
 ...84
 ...105
 ...126
 ...147
 ...168
 ...189
 ...210

 SPLINE_INFO| Number of unique splines computed:            96

 SPLINE_INFO| Done


 MOLECULE KIND INFORMATION

     1. Molecule kind: _QM_P1                    Number of atoms:             27
                     Atom         Atomic kind name
                        1                        C
                        2                        O
                        3                      NH1
                        4                        H
                        5                      CT3
                        6                      HA3
                        7                      HA3
                        8                      HA3
                        9                      CT3
                       10                      HA3
                       11                      HA3
                       12                      HA3
                       13                        C
                       14                        O
                       15                      NH1
                       16                        H
                       17             _LNK1_QM_CT1
                       18                      HB1
                       19                 _QM_CT2A
                       20                  _QM_HA2
                       21                  _QM_HA2
                       22                  _QM_CT2
                       23                  _QM_HA2
                       24                  _QM_HA2
                       25                   _QM_CC
                       26                   _QM_OC
                       27                   _QM_OC

        The name was automatically generated: F
        Number of molecules:      1
        Molecule list:                1
        Number of bonds:           17
        Number of bends:           30
        Number of torsions:        41
        Number of improper:         4

     2. Molecule kind: _QM_O1                    Number of atoms:              4
                     Atom         Atomic kind name
                        1                  _QM_OTH
                        2                  _QM_HTH
                        3                  _QM_HTH
                        4                  _QM_HTH

        The name was automatically generated: F
        Number of molecules:      1
        Molecule list:                2

     3. Molecule kind: W1                        Number of atoms:              3
                     Atom         Atomic kind name
                        1                       OT
                        2                       HT
                        3                       HT

        The name was automatically generated: F
        Number of molecules:     39
        Molecule list:                3         4         5         6         7
                                      8         9        10        11        12
                                     13        14        15        16        17
                                     18        19        20        21        22
                                     23        24        25        26        27
                                     28        29        30        31        32
                                     33        34        35        36        37
                                     38        39        40        41
        Number of bonds:            2
        Number of bends:            1

     4. Molecule kind: _QM_W1                    Number of atoms:              3
                     Atom         Atomic kind name
                        1                   _QM_OT
                        2                   _QM_HT
                        3                   _QM_HT

        The name was automatically generated: F
        Number of molecules:      1
        Molecule list:               42

     5. Molecule kind: W1                        Number of atoms:              3
                     Atom         Atomic kind name
                        1                       OT
                        2                       HT
                        3                       HT

        The name was automatically generated: F
        Number of molecules:      1
        Molecule list:               43
        Number of bonds:            2
        Number of bends:            1

     6. Molecule kind: _QM_W1                    Number of atoms:              3
                     Atom         Atomic kind name
                        1                   _QM_OT
                        2                   _QM_HT
                        3                   _QM_HT

        The name was automatically generated: F
        Number of molecules:      1
        Molecule list:               44

     7. Molecule kind: W1                        Number of atoms:              3
                     Atom         Atomic kind name
                        1                       OT
                        2                       HT
                        3                       HT

        The name was automatically generated: F
        Number of molecules:      7
        Molecule list:               45        46        47        48        49
                                     50        51
        Number of bonds:            2
        Number of bends:            1

     8. Molecule kind: _QM_W1                    Number of atoms:              3
                     Atom         Atomic kind name
                        1                   _QM_OT
                        2                   _QM_HT
                        3                   _QM_HT

        The name was automatically generated: F
        Number of molecules:      1
        Molecule list:               52

     9. Molecule kind: W1                        Number of atoms:              3
                     Atom         Atomic kind name
                        1                       OT
                        2                       HT
                        3                       HT

        The name was automatically generated: F
        Number of molecules:     17
        Molecule list:               53        54        55        56        57
                                     58        59        60        61        62
                                     63        64        65        66        67
                                     68        69
        Number of bonds:            2
        Number of bends:            1

    10. Molecule kind: _QM_W1                    Number of atoms:              3
                     Atom         Atomic kind name
                        1                   _QM_OT
                        2                   _QM_HT
                        3                   _QM_HT

        The name was automatically generated: F
        Number of molecules:      1
        Molecule list:               70

    11. Molecule kind: W1                        Number of atoms:              3
                     Atom         Atomic kind name
                        1                       OT
                        2                       HT
                        3                       HT

        The name was automatically generated: F
        Number of molecules:     19
        Molecule list:               71        72        73        74        75
                                     76        77        78        79        80
                                     81        82        83        84        85
                                     86        87        88        89
        Number of bonds:            2
        Number of bends:            1

    12. Molecule kind: _QM_W1                    Number of atoms:              3
                     Atom         Atomic kind name
                        1                   _QM_OT
                        2                   _QM_HT
                        3                   _QM_HT

        The name was automatically generated: F
        Number of molecules:      1
        Molecule list:               90

    13. Molecule kind: W1                        Number of atoms:              3
                     Atom         Atomic kind name
                        1                       OT
                        2                       HT
                        3                       HT

        The name was automatically generated: F
        Number of molecules:      7
        Molecule list:               91        92        93        94        95
                                     96        97
        Number of bonds:            2
        Number of bends:            1

    14. Molecule kind: _QM_W1                    Number of atoms:              3
                     Atom         Atomic kind name
                        1                   _QM_OT
                        2                   _QM_HT
                        3                   _QM_HT

        The name was automatically generated: F
        Number of molecules:      1
        Molecule list:               98

    15. Molecule kind: W1                        Number of atoms:              3
                     Atom         Atomic kind name
                        1                       OT
                        2                       HT
                        3                       HT

        The name was automatically generated: F
        Number of molecules:     25
        Molecule list:               99       100       101       102       103
                                    104       105       106       107       108
                                    109       110       111       112       113
                                    114       115       116       117       118
                                    119       120       121       122       123
        Number of bonds:            2
        Number of bends:            1

    16. Molecule kind: _QM_W1                    Number of atoms:              3
                     Atom         Atomic kind name
                        1                   _QM_OT
                        2                   _QM_HT
                        3                   _QM_HT

        The name was automatically generated: F
        Number of molecules:      1
        Molecule list:              124

    17. Molecule kind: W1                        Number of atoms:              3
                     Atom         Atomic kind name
                        1                       OT
                        2                       HT
                        3                       HT

        The name was automatically generated: F
        Number of molecules:     26
        Molecule list:              125       126       127       128       129
                                    130       131       132       133       134
                                    135       136       137       138       139
                                    140       141       142       143       144
                                    145       146       147       148       149
                                    150
        Number of bonds:            2
        Number of bends:            1

    18. Molecule kind: _QM_W1                    Number of atoms:              3
                     Atom         Atomic kind name
                        1                   _QM_OT
                        2                   _QM_HT
                        3                   _QM_HT

        The name was automatically generated: F
        Number of molecules:      1
        Molecule list:              151

    19. Molecule kind: W1                        Number of atoms:              3
                     Atom         Atomic kind name
                        1                       OT
                        2                       HT
                        3                       HT

        The name was automatically generated: F
        Number of molecules:      3
        Molecule list:              152       153       154
        Number of bonds:            2
        Number of bends:            1

    20. Molecule kind: _QM_W1                    Number of atoms:              3
                     Atom         Atomic kind name
                        1                   _QM_OT
                        2                   _QM_HT
                        3                   _QM_HT

        The name was automatically generated: F
        Number of molecules:      1
        Molecule list:              155

    21. Molecule kind: W1                        Number of atoms:              3
                     Atom         Atomic kind name
                        1                       OT
                        2                       HT
                        3                       HT

        The name was automatically generated: F
        Number of molecules:      8
        Molecule list:              156       157       158       159       160
                                    161       162       163
        Number of bonds:            2
        Number of bends:            1

    22. Molecule kind: _QM_W1                    Number of atoms:              3
                     Atom         Atomic kind name
                        1                   _QM_OT
                        2                   _QM_HT
                        3                   _QM_HT

        The name was automatically generated: F
        Number of molecules:      1
        Molecule list:              164

    23. Molecule kind: W1                        Number of atoms:              3
                     Atom         Atomic kind name
                        1                       OT
                        2                       HT
                        3                       HT

        The name was automatically generated: F
        Number of molecules:     11
        Molecule list:              165       166       167       168       169
                                    170       171       172       173       174
                                    175
        Number of bonds:            2
        Number of bends:            1

    24. Molecule kind: _QM_W1                    Number of atoms:              3
                     Atom         Atomic kind name
                        1                   _QM_OT
                        2                   _QM_HT
                        3                   _QM_HT

        The name was automatically generated: F
        Number of molecules:      1
        Molecule list:              176

    25. Molecule kind: W1                        Number of atoms:              3
                     Atom         Atomic kind name
                        1                       OT
                        2                       HT
                        3                       HT

        The name was automatically generated: F
        Number of molecules:     41
        Molecule list:              177       178       179       180       181
                                    182       183       184       185       186
                                    187       188       189       190       191
                                    192       193       194       195       196
                                    197       198       199       200       201
                                    202       203       204       205       206
                                    207       208       209       210       211
                                    212       213       214       215       216
                                    217
        Number of bonds:            2
        Number of bends:            1

    26. Molecule kind: _QM_W1                    Number of atoms:              3
                     Atom         Atomic kind name
                        1                   _QM_OT
                        2                   _QM_HT
                        3                   _QM_HT

        The name was automatically generated: F
        Number of molecules:      1
        Molecule list:              218

    27. Molecule kind: W1                        Number of atoms:              3
                     Atom         Atomic kind name
                        1                       OT
                        2                       HT
                        3                       HT

        The name was automatically generated: F
        Number of molecules:     11
        Molecule list:              219       220       221       222       223
                                    224       225       226       227       228
                                    229
        Number of bonds:            2
        Number of bends:            1

    28. Molecule kind: _QM_W1                    Number of atoms:              3
                     Atom         Atomic kind name
                        1                   _QM_OT
                        2                   _QM_HT
                        3                   _QM_HT

        The name was automatically generated: F
        Number of molecules:      1
        Molecule list:              230

    29. Molecule kind: W1                        Number of atoms:              3
                     Atom         Atomic kind name
                        1                       OT
                        2                       HT
                        3                       HT

        The name was automatically generated: F
        Number of molecules:     34
        Molecule list:              231       232       233       234       235
                                    236       237       238       239       240
                                    241       242       243       244       245
                                    246       247       248       249       250
                                    251       252       253       254       255
                                    256       257       258       259       260
                                    261       262       263       264
        Number of bonds:            2
        Number of bends:            1

    30. Molecule kind: _QM_W1                    Number of atoms:              3
                     Atom         Atomic kind name
                        1                   _QM_OT
                        2                   _QM_HT
                        3                   _QM_HT

        The name was automatically generated: F
        Number of molecules:      1
        Molecule list:              265

    31. Molecule kind: W1                        Number of atoms:              3
                     Atom         Atomic kind name
                        1                       OT
                        2                       HT
                        3                       HT

        The name was automatically generated: F
        Number of molecules:      9
        Molecule list:              266       267       268       269       270
                                    271       272       273       274
        Number of bonds:            2
        Number of bends:            1

    32. Molecule kind: _QM_W1                    Number of atoms:              3
                     Atom         Atomic kind name
                        1                   _QM_OT
                        2                   _QM_HT
                        3                   _QM_HT

        The name was automatically generated: F
        Number of molecules:      1
        Molecule list:              275

    33. Molecule kind: W1                        Number of atoms:              3
                     Atom         Atomic kind name
                        1                       OT
                        2                       HT
                        3                       HT

        The name was automatically generated: F
        Number of molecules:     27
        Molecule list:              276       277       278       279       280
                                    281       282       283       284       285
                                    286       287       288       289       290
                                    291       292       293       294       295
                                    296       297       298       299       300
                                    301       302
        Number of bonds:            2
        Number of bends:            1

    34. Molecule kind: _QM_W1                    Number of atoms:              3
                     Atom         Atomic kind name
                        1                   _QM_OT
                        2                   _QM_HT
                        3                   _QM_HT

        The name was automatically generated: F
        Number of molecules:      1
        Molecule list:              303

    35. Molecule kind: W1                        Number of atoms:              3
                     Atom         Atomic kind name
                        1                       OT
                        2                       HT
                        3                       HT

        The name was automatically generated: F
        Number of molecules:     24
        Molecule list:              304       305       306       307       308
                                    309       310       311       312       313
                                    314       315       316       317       318
                                    319       320       321       322       323
                                    324       325       326       327
        Number of bonds:            2
        Number of bends:            1

    36. Molecule kind: _QM_W1                    Number of atoms:              3
                     Atom         Atomic kind name
                        1                   _QM_OT
                        2                   _QM_HT
                        3                   _QM_HT

        The name was automatically generated: F
        Number of molecules:      1
        Molecule list:              328

    37. Molecule kind: W1                        Number of atoms:              3
                     Atom         Atomic kind name
                        1                       OT
                        2                       HT
                        3                       HT

        The name was automatically generated: F
        Number of molecules:      8
        Molecule list:              329       330       331       332       333
                                    334       335       336
        Number of bonds:            2
        Number of bends:            1

    38. Molecule kind: _QM_W1                    Number of atoms:              3
                     Atom         Atomic kind name
                        1                   _QM_OT
                        2                   _QM_HT
                        3                   _QM_HT

        The name was automatically generated: F
        Number of molecules:      1
        Molecule list:              337

    39. Molecule kind: W1                        Number of atoms:              3
                     Atom         Atomic kind name
                        1                       OT
                        2                       HT
                        3                       HT

        The name was automatically generated: F
        Number of molecules:      5
        Molecule list:              338       339       340       341       342
        Number of bonds:            2
        Number of bends:            1

    40. Molecule kind: _QM_W1                    Number of atoms:              3
                     Atom         Atomic kind name
                        1                   _QM_OT
                        2                   _QM_HT
                        3                   _QM_HT

        The name was automatically generated: F
        Number of molecules:      1
        Molecule list:              343

    41. Molecule kind: W1                        Number of atoms:              3
                     Atom         Atomic kind name
                        1                       OT
                        2                       HT
                        3                       HT

        The name was automatically generated: F
        Number of molecules:     10
        Molecule list:              344       345       346       347       348
                                    349       350       351       352       353
        Number of bonds:            2
        Number of bends:            1

    42. Molecule kind: _QM_W1                    Number of atoms:              3
                     Atom         Atomic kind name
                        1                   _QM_OT
                        2                   _QM_HT
                        3                   _QM_HT

        The name was automatically generated: F
        Number of molecules:      1
        Molecule list:              354

    43. Molecule kind: W1                        Number of atoms:              3
                     Atom         Atomic kind name
                        1                       OT
                        2                       HT
                        3                       HT

        The name was automatically generated: F
        Number of molecules:      9
        Molecule list:              355       356       357       358       359
                                    360       361       362       363
        Number of bonds:            2
        Number of bends:            1

    44. Molecule kind: _QM_W1                    Number of atoms:              3
                     Atom         Atomic kind name
                        1                   _QM_OT
                        2                   _QM_HT
                        3                   _QM_HT

        The name was automatically generated: F
        Number of molecules:      1
        Molecule list:              364

    45. Molecule kind: W1                        Number of atoms:              3
                     Atom         Atomic kind name
                        1                       OT
                        2                       HT
                        3                       HT

        The name was automatically generated: F
        Number of molecules:     44
        Molecule list:              365       366       367       368       369
                                    370       371       372       373       374
                                    375       376       377       378       379
                                    380       381       382       383       384
                                    385       386       387       388       389
                                    390       391       392       393       394
                                    395       396       397       398       399
                                    400       401       402       403       404
                                    405       406       407       408
        Number of bonds:            2
        Number of bends:            1

    46. Molecule kind: _QM_W1                    Number of atoms:              3
                     Atom         Atomic kind name
                        1                   _QM_OT
                        2                   _QM_HT
                        3                   _QM_HT

        The name was automatically generated: F
        Number of molecules:      1
        Molecule list:              409

    47. Molecule kind: W1                        Number of atoms:              3
                     Atom         Atomic kind name
                        1                       OT
                        2                       HT
                        3                       HT

        The name was automatically generated: F
        Number of molecules:      8
        Molecule list:              410       411       412       413       414
                                    415       416       417
        Number of bonds:            2
        Number of bends:            1

    48. Molecule kind: _QM_W1                    Number of atoms:              3
                     Atom         Atomic kind name
                        1                   _QM_OT
                        2                   _QM_HT
                        3                   _QM_HT

        The name was automatically generated: F
        Number of molecules:      1
        Molecule list:              418

    49. Molecule kind: W1                        Number of atoms:              3
                     Atom         Atomic kind name
                        1                       OT
                        2                       HT
                        3                       HT

        The name was automatically generated: F
        Number of molecules:     50
        Molecule list:              419       420       421       422       423
                                    424       425       426       427       428
                                    429       430       431       432       433
                                    434       435       436       437       438
                                    439       440       441       442       443
                                    444       445       446       447       448
                                    449       450       451       452       453
                                    454       455       456       457       458
                                    459       460       461       462       463
                                    464       465       466       467       468
        Number of bonds:            2
        Number of bends:            1


 MOLECULE KIND SET INFORMATION               Total Number of bonds:          903
                                             Total Number of bends:          473
                                             Total Number of Urey-Bradley:     0
                                             Total Number of torsions:        41
                                             Total Number of improper:         4
                                              Total Number of opbends:         0


 MODULE FIST:  ATOMIC COORDINATES IN angstrom

  Atom  Kind  ATM_TYP       X           Y           Z          q(eff)       Mass

     1    1   C         -1.441000   -8.975000  -13.069000      0.51      12.0110
     2    2   O         -2.085000   -8.513000  -14.048000     -0.51      15.9990
     3    3   NH1       -1.826000  -10.155000  -12.610000     -0.47      14.0070
     4    4   H         -1.385000  -10.634000  -11.831000      0.31       1.0080
     5    5   CT3       -2.730000  -11.050000  -13.242000     -0.11      12.0110
     6    6   HA3       -2.210000  -11.389000  -14.130000      0.09       1.0080
     7    6   HA3       -2.804000  -11.909000  -12.589000      0.09       1.0080
     8    6   HA3       -3.721000  -10.570000  -13.501000      0.09       1.0080
     9    7   CT3        0.146000   -5.394000  -15.039000     -0.27      12.0110
    10    6   HA3       -0.191000   -4.547000  -14.288000      0.09       1.0080
    11    6   HA3       -0.653000   -5.506000  -15.895000      0.09       1.0080
    12    6   HA3        1.094000   -4.890000  -15.422000      0.09       1.0080
    13    1   C          0.414000   -6.576000  -14.304000      0.51      12.0110
    14    2   O          1.536000   -7.071000  -14.443000     -0.51      15.9990
    15    3   NH1       -0.560000   -7.049000  -13.409000     -0.47      14.0070
    16    4   H         -1.509000   -6.558000  -13.316000      0.31       1.0080
    17    8   _LNK      -0.431000   -8.090000  -12.542000      0.07      12.0110
    18    9   HB1        0.540000   -8.536000  -12.616000      0.09       1.0080
    19   10   _QM_      -0.813000   -7.633000  -11.122000      0.00      12.0110
    20   11   _QM_      -1.644000   -6.958000  -11.233000      0.00       1.0080
    21   11   _QM_      -1.096000   -8.595000  -10.573000      0.00       1.0080
    22   12   _QM_       0.373000   -6.825000  -10.536000      0.00      12.0110
    23   11   _QM_       1.274000   -7.422000  -10.386000      0.00       1.0080
    24   11   _QM_       0.654000   -6.028000  -11.247000      0.00       1.0080
    25   13   _QM_       0.138000   -6.135000   -9.207000      0.00      12.0110
    26   14   _QM_      -0.795000   -6.304000   -8.459000      0.00      15.9990
    27   14   _QM_       1.079000   -5.152000   -8.787000      0.00      15.9990
    28   15   _QM_      -0.212000   -3.838000   -6.418000      0.00      15.9994
    29   16   _QM_       0.551000   -4.699000   -7.967000      0.00       1.0080
    30   16   _QM_      -0.341000   -2.870000   -6.234000      0.00       1.0080
    31   16   _QM_      -1.021000   -4.438000   -6.358000      0.00       1.0080
    32   17   OT         5.102000  -12.436000  -10.626000     -0.82      15.9994
    33   18   HT         6.059000  -12.233000  -10.948000      0.41       1.0080
    34   18   HT         5.098000  -12.431000   -9.594000      0.41       1.0080
    35   17   OT       -11.982000   -5.765000   -7.244000     -0.82      15.9994
    36   18   HT       -12.445000   -5.069000   -6.702000      0.41       1.0080
    37   18   HT       -11.161000   -6.135000   -6.748000      0.41       1.0080
    38   17   OT         2.037000  -13.546000   -7.798000     -0.82      15.9994
    39   18   HT         1.793000  -12.582000   -8.012000      0.41       1.0080
    40   18   HT         1.586000  -14.155000   -8.506000      0.41       1.0080
    41   17   OT         9.822000   -1.325000  -11.716000     -0.82      15.9994
    42   18   HT         9.406000   -1.731000  -10.838000      0.41       1.0080
    43   18   HT         9.413000   -0.425000  -11.886000      0.41       1.0080
    44   17   OT        -7.024000   -5.815000  -19.587000     -0.82      15.9994
    45   18   HT        -6.064000   -6.119000  -19.809000      0.41       1.0080
    46   18   HT        -7.119000   -5.232000  -18.735000      0.41       1.0080
    47   17   OT        -5.860000  -14.485000   -0.025000     -0.82      15.9994
    48   18   HT        -6.247000  -13.868000   -0.744000      0.41       1.0080
    49   18   HT        -4.938000  -14.751000   -0.387000      0.41       1.0080
    50   17   OT        -8.812000  -17.068000  -17.291000     -0.82      15.9994
    51   18   HT        -9.014000  -17.422000  -18.239000      0.41       1.0080
    52   18   HT        -9.674000  -16.691000  -16.854000      0.41       1.0080
    53   17   OT         6.163000   -0.455000  -15.662000     -0.82      15.9994
    54   18   HT         6.812000   -1.079000  -15.121000      0.41       1.0080
    55   18   HT         6.558000    0.151000  -16.381000      0.41       1.0080
    56   17   OT         2.242000  -10.634000  -16.370000     -0.82      15.9994
    57   18   HT         1.801000  -10.056000  -15.693000      0.41       1.0080
    58   18   HT         3.200000  -10.262000  -16.453000      0.41       1.0080
    59   17   OT         0.965000  -16.829000   -2.231000     -0.82      15.9994
    60   18   HT         0.648000  -16.932000   -1.309000      0.41       1.0080
    61   18   HT         1.861000  -16.373000   -2.336000      0.41       1.0080
    62   17   OT         4.160000    4.027000    0.929000     -0.82      15.9994
    63   18   HT         3.184000    4.298000    0.736000      0.41       1.0080
    64   18   HT         4.452000    4.879000    1.459000      0.41       1.0080
    65   17   OT         8.432000  -11.993000  -18.390000     -0.82      15.9994
    66   18   HT         8.031000  -12.787000  -18.933000      0.41       1.0080
    67   18   HT         8.644000  -11.146000  -18.925000      0.41       1.0080
    68   17   OT        -3.879000   -9.384000   -4.850000     -0.82      15.9994
    69   18   HT        -3.934000   -9.374000   -3.837000      0.41       1.0080
    70   18   HT        -4.817000   -9.482000   -5.248000      0.41       1.0080
    71   17   OT        -5.987000  -13.041000  -10.006000     -0.82      15.9994
    72   18   HT        -6.087000  -12.063000  -10.326000      0.41       1.0080
    73   18   HT        -6.268000  -13.203000   -9.017000      0.41       1.0080
    74   17   OT         0.537000    4.038000   -5.091000     -0.82      15.9994
    75   18   HT         0.025000    3.420000   -4.434000      0.41       1.0080
    76   18   HT         0.506000    3.627000   -6.034000      0.41       1.0080
    77   17   OT        -1.334000    3.383000  -12.298000     -0.82      15.9994
    78   18   HT        -1.353000    4.060000  -11.528000      0.41       1.0080
    79   18   HT        -0.548000    2.731000  -12.166000      0.41       1.0080
    80   17   OT        -2.602000  -10.325000  -20.052000     -0.82      15.9994
    81   18   HT        -2.643000  -11.209000  -19.553000      0.41       1.0080
    82   18   HT        -1.564000  -10.188000  -20.095000      0.41       1.0080
    83   17   OT        -0.433000  -17.529000   -4.628000     -0.82      15.9994
    84   18   HT        -0.377000  -17.175000   -3.649000      0.41       1.0080
    85   18   HT        -0.022000  -18.474000   -4.772000      0.41       1.0080
    86   17   OT        -5.761000   -6.187000   -9.391000     -0.82      15.9994
    87   18   HT        -6.141000   -5.299000   -9.058000      0.41       1.0080
    88   18   HT        -5.512000   -6.865000   -8.666000      0.41       1.0080
    89   17   OT        -1.932000  -14.264000  -14.757000     -0.82      15.9994
    90   18   HT        -2.839000  -13.890000  -14.545000      0.41       1.0080
    91   18   HT        -1.519000  -13.674000  -15.499000      0.41       1.0080
    92   17   OT         1.894000  -11.761000    1.845000     -0.82      15.9994
    93   18   HT         2.221000  -11.734000    2.814000      0.41       1.0080
    94   18   HT         2.609000  -11.797000    1.106000      0.41       1.0080
    95   17   OT        -4.494000  -17.927000  -17.177000     -0.82      15.9994
    96   18   HT        -5.277000  -17.237000  -17.102000      0.41       1.0080
    97   18   HT        -3.619000  -17.647000  -16.683000      0.41       1.0080
    98   17   OT        -2.883000  -14.532000   -0.334000     -0.82      15.9994
    99   18   HT        -2.636000  -14.334000   -1.310000      0.41       1.0080
   100   18   HT        -2.699000  -15.528000   -0.079000      0.41       1.0080
   101   17   OT         0.785000    4.852000   -9.379000     -0.82      15.9994
   102   18   HT         1.044000    5.145000  -10.348000      0.41       1.0080
   103   18   HT         1.149000    5.634000   -8.826000      0.41       1.0080
   104   17   OT        10.001000    5.736000   -5.577000     -0.82      15.9994
   105   18   HT        10.400000    5.105000   -6.314000      0.41       1.0080
   106   18   HT         9.774000    6.570000   -6.135000      0.41       1.0080
   107   17   OT        12.062000    5.949000  -14.997000     -0.82      15.9994
   108   18   HT        12.616000    5.893000  -14.105000      0.41       1.0080
   109   18   HT        12.461000    6.809000  -15.437000      0.41       1.0080
   110   17   OT         0.645000   -2.989000  -17.347000     -0.82      15.9994
   111   18   HT         1.547000   -3.440000  -17.255000      0.41       1.0080
   112   18   HT         0.795000   -2.116000  -17.891000      0.41       1.0080
   113   17   OT        -5.272000    1.543000  -17.355000     -0.82      15.9994
   114   18   HT        -5.086000    0.710000  -17.933000      0.41       1.0080
   115   18   HT        -6.120000    1.256000  -16.889000      0.41       1.0080
   116   17   OT       -11.303000    4.115000    1.284000     -0.82      15.9994
   117   18   HT       -12.269000    4.257000    1.578000      0.41       1.0080
   118   18   HT       -10.644000    3.891000    2.052000      0.41       1.0080
   119   17   OT         8.764000  -10.531000  -12.330000     -0.82      15.9994
   120   18   HT         8.234000  -10.227000  -13.153000      0.41       1.0080
   121   18   HT         9.442000  -11.212000  -12.800000      0.41       1.0080
   122   17   OT         8.365000  -11.623000   -1.451000     -0.82      15.9994
   123   18   HT         8.985000  -12.114000   -2.126000      0.41       1.0080
   124   18   HT         8.006000  -10.694000   -1.859000      0.41       1.0080
   125   17   OT         5.086000   -5.184000    0.684000     -0.82      15.9994
   126   18   HT         5.718000   -5.897000    0.258000      0.41       1.0080
   127   18   HT         4.096000   -5.287000    0.498000      0.41       1.0080
   128   17   OT        11.833000  -10.966000   -6.981000     -0.82      15.9994
   129   18   HT        10.856000  -10.845000   -7.224000      0.41       1.0080
   130   18   HT        12.273000  -10.181000   -7.488000      0.41       1.0080
   131   17   OT        -7.471000    2.436000   -5.209000     -0.82      15.9994
   132   18   HT        -6.991000    2.272000   -6.071000      0.41       1.0080
   133   18   HT        -6.754000    2.293000   -4.486000      0.41       1.0080
   134   17   OT        11.478000   -9.992000  -11.200000     -0.82      15.9994
   135   18   HT        10.718000   -9.825000  -11.846000      0.41       1.0080
   136   18   HT        12.171000  -10.634000  -11.595000      0.41       1.0080
   137   17   OT         3.934000  -17.117000  -15.793000     -0.82      15.9994
   138   18   HT         3.335000  -17.006000  -16.680000      0.41       1.0080
   139   18   HT         4.376000  -18.032000  -15.835000      0.41       1.0080
   140   17   OT         1.030000  -11.124000   -3.195000     -0.82      15.9994
   141   18   HT         0.215000  -10.525000   -3.389000      0.41       1.0080
   142   18   HT         0.839000  -11.839000   -2.445000      0.41       1.0080
   143   17   OT        -7.409000   -8.646000  -12.603000     -0.82      15.9994
   144   18   HT        -7.969000   -8.971000  -13.400000      0.41       1.0080
   145   18   HT        -7.813000   -7.812000  -12.188000      0.41       1.0080
   146   17   OT        -8.036000    4.455000  -17.250000     -0.82      15.9994
   147   18   HT        -7.054000    4.170000  -17.136000      0.41       1.0080
   148   18   HT        -8.185000    5.496000  -17.219000      0.41       1.0080
   149   19   _QM_      -4.650000    2.566000   -3.854000      0.00      15.9994
   150   20   _QM_      -3.755000    3.033000   -3.782000      0.00       1.0080
   151   20   _QM_      -4.436000    1.796000   -4.484000      0.00       1.0080
   152   17   OT        -5.663000  -11.568000   -0.654000     -0.82      15.9994
   153   18   HT        -4.776000  -11.763000   -1.100000      0.41       1.0080
   154   18   HT        -6.111000  -10.894000   -1.293000      0.41       1.0080
   155   19   _QM_      -1.225000   -3.833000  -10.717000      0.00      15.9994
   156   20   _QM_      -0.997000   -2.924000  -10.269000      0.00       1.0080
   157   20   _QM_      -1.494000   -3.375000  -11.602000      0.00       1.0080
   158   17   OT       -10.809000   -5.213000  -15.921000     -0.82      15.9994
   159   18   HT       -10.584000   -4.234000  -15.743000      0.41       1.0080
   160   18   HT       -11.653000   -5.255000  -16.524000      0.41       1.0080
   161   17   OT        12.010000   -5.891000  -10.058000     -0.82      15.9994
   162   18   HT        12.194000   -5.595000   -9.072000      0.41       1.0080
   163   18   HT        12.829000   -5.858000  -10.675000      0.41       1.0080
   164   17   OT         9.649000   -9.960000  -16.361000     -0.82      15.9994
   165   18   HT         9.772000  -10.984000  -16.307000      0.41       1.0080
   166   18   HT        10.293000   -9.583000  -15.660000      0.41       1.0080
   167   17   OT         0.785000    2.236000   -7.412000     -0.82      15.9994
   168   18   HT        -0.113000    2.660000   -7.522000      0.41       1.0080
   169   18   HT         1.209000    2.136000   -8.336000      0.41       1.0080
   170   17   OT         3.628000  -11.843000   -0.313000     -0.82      15.9994
   171   18   HT         4.068000  -10.999000    0.058000      0.41       1.0080
   172   18   HT         4.212000  -12.164000   -1.052000      0.41       1.0080
   173   17   OT        -7.715000    3.625000  -14.441000     -0.82      15.9994
   174   18   HT        -8.067000    2.694000  -14.732000      0.41       1.0080
   175   18   HT        -6.834000    3.902000  -14.912000      0.41       1.0080
   176   17   OT         9.394000    4.012000  -11.621000     -0.82      15.9994
   177   18   HT        10.060000    3.228000  -11.352000      0.41       1.0080
   178   18   HT         8.913000    4.412000  -10.731000      0.41       1.0080
   179   19   _QM_       0.117000   -2.314000    0.565000      0.00      15.9994
   180   20   _QM_       0.822000   -2.758000    1.218000      0.00       1.0080
   181   20   _QM_       0.089000   -1.274000    0.666000      0.00       1.0080
   182   17   OT         4.129000   -6.596000  -10.711000     -0.82      15.9994
   183   18   HT         3.767000   -7.243000  -11.431000      0.41       1.0080
   184   18   HT         4.035000   -5.631000  -11.011000      0.41       1.0080
   185   17   OT         3.849000  -17.621000   -2.790000     -0.82      15.9994
   186   18   HT         3.422000  -18.147000   -3.568000      0.41       1.0080
   187   18   HT         4.430000  -18.450000   -2.463000      0.41       1.0080
   188   17   OT         5.327000  -10.638000  -13.278000     -0.82      15.9994
   189   18   HT         5.048000  -11.606000  -13.197000      0.41       1.0080
   190   18   HT         6.061000  -10.430000  -13.950000      0.41       1.0080
   191   17   OT         1.779000  -14.696000    1.402000     -0.82      15.9994
   192   18   HT         2.627000  -15.216000    1.641000      0.41       1.0080
   193   18   HT         1.938000  -13.680000    1.314000      0.41       1.0080
   194   17   OT        11.904000   -9.498000  -20.519000     -0.82      15.9994
   195   18   HT        12.403000   -9.556000  -19.663000      0.41       1.0080
   196   18   HT        12.276000   -8.555000  -20.677000      0.41       1.0080
   197   17   OT         2.701000   -0.427000  -21.297000     -0.82      15.9994
   198   18   HT         2.938000    0.120000  -22.131000      0.41       1.0080
   199   18   HT         2.553000   -1.322000  -21.741000      0.41       1.0080
   200   17   OT         5.334000  -13.705000  -14.028000     -0.82      15.9994
   201   18   HT         6.153000  -14.067000  -13.567000      0.41       1.0080
   202   18   HT         4.503000  -14.353000  -14.005000      0.41       1.0080
   203   17   OT        11.063000  -16.359000  -18.700000     -0.82      15.9994
   204   18   HT        10.855000  -16.818000  -19.617000      0.41       1.0080
   205   18   HT        11.515000  -15.490000  -18.978000      0.41       1.0080
   206   17   OT        -6.858000  -13.978000   -3.355000     -0.82      15.9994
   207   18   HT        -6.802000  -14.967000   -3.656000      0.41       1.0080
   208   18   HT        -7.867000  -13.617000   -3.338000      0.41       1.0080
   209   17   OT        -6.073000  -10.599000   -6.450000     -0.82      15.9994
   210   18   HT        -6.017000  -11.252000   -5.645000      0.41       1.0080
   211   18   HT        -6.783000  -11.090000   -7.001000      0.41       1.0080
   212   17   OT         2.521000  -16.933000  -10.036000     -0.82      15.9994
   213   18   HT         1.941000  -16.099000  -10.213000      0.41       1.0080
   214   18   HT         3.017000  -16.757000   -9.164000      0.41       1.0080
   215   17   OT         2.068000    3.688000   -0.804000     -0.82      15.9994
   216   18   HT         2.015000    2.748000   -1.295000      0.41       1.0080
   217   18   HT         2.203000    4.469000   -1.451000      0.41       1.0080
   218   17   OT         2.425000  -18.001000  -19.335000     -0.82      15.9994
   219   18   HT         2.169000  -17.214000  -18.742000      0.41       1.0080
   220   18   HT         2.223000  -17.784000  -20.331000      0.41       1.0080
   221   17   OT         4.407000    4.554000  -15.805000     -0.82      15.9994
   222   18   HT         4.382000    3.668000  -16.316000      0.41       1.0080
   223   18   HT         5.307000    4.513000  -15.259000      0.41       1.0080
   224   17   OT        -2.450000  -14.695000   -3.137000     -0.82      15.9994
   225   18   HT        -1.742000  -14.893000   -3.856000      0.41       1.0080
   226   18   HT        -3.040000  -14.012000   -3.599000      0.41       1.0080
   227   17   OT         6.566000   -2.260000   -5.664000     -0.82      15.9994
   228   18   HT         7.395000   -2.276000   -6.302000      0.41       1.0080
   229   18   HT         6.615000   -1.431000   -5.095000      0.41       1.0080
   230   17   OT        10.626000  -11.986000  -14.030000     -0.82      15.9994
   231   18   HT         9.799000  -12.246000  -14.626000      0.41       1.0080
   232   18   HT        11.383000  -11.624000  -14.585000      0.41       1.0080
   233   19   _QM_      -4.722000   -0.214000   -9.299000      0.00      15.9994
   234   20   _QM_      -4.521000    0.630000   -9.884000      0.00       1.0080
   235   20   _QM_      -5.400000    0.026000   -8.551000      0.00       1.0080
   236   17   OT        11.726000   -9.083000   -4.350000     -0.82      15.9994
   237   18   HT        11.364000   -9.293000   -3.373000      0.41       1.0080
   238   18   HT        10.901000   -9.200000   -4.962000      0.41       1.0080
   239   17   OT         8.920000   -9.755000   -8.069000     -0.82      15.9994
   240   18   HT         9.505000   -8.984000   -8.556000      0.41       1.0080
   241   18   HT         7.882000   -9.672000   -8.178000      0.41       1.0080
   242   17   OT        10.371000  -11.997000    1.992000     -0.82      15.9994
   243   18   HT        10.947000  -11.190000    2.354000      0.41       1.0080
   244   18   HT        10.381000  -12.758000    2.669000      0.41       1.0080
   245   17   OT       -11.691000  -10.442000    0.446000     -0.82      15.9994
   246   18   HT       -11.060000   -9.769000    0.833000      0.41       1.0080
   247   18   HT       -11.335000  -11.008000   -0.306000      0.41       1.0080
   248   17   OT        10.719000   -3.253000  -20.262000     -0.82      15.9994
   249   18   HT         9.913000   -2.660000  -20.354000      0.41       1.0080
   250   18   HT        11.284000   -3.305000  -21.158000      0.41       1.0080
   251   17   OT        -9.361000   -6.945000   -6.207000     -0.82      15.9994
   252   18   HT        -8.321000   -6.791000   -6.186000      0.41       1.0080
   253   18   HT        -9.494000   -7.978000   -6.103000      0.41       1.0080
   254   17   OT        10.974000   -8.668000  -14.276000     -0.82      15.9994
   255   18   HT        10.200000   -8.109000  -13.885000      0.41       1.0080
   256   18   HT        11.851000   -8.143000  -14.167000      0.41       1.0080
   257   17   OT         6.323000   -8.994000   -8.826000     -0.82      15.9994
   258   18   HT         5.672000   -8.210000   -8.521000      0.41       1.0080
   259   18   HT         6.453000   -8.882000   -9.846000      0.41       1.0080
   260   17   OT        -3.196000  -12.343000  -18.407000     -0.82      15.9994
   261   18   HT        -3.980000  -13.033000  -18.456000      0.41       1.0080
   262   18   HT        -2.482000  -12.708000  -17.714000      0.41       1.0080
   263   17   OT        -5.400000   -6.455000  -12.252000     -0.82      15.9994
   264   18   HT        -5.848000   -7.382000  -12.426000      0.41       1.0080
   265   18   HT        -5.730000   -6.306000  -11.302000      0.41       1.0080
   266   17   OT         5.313000   -2.905000   -0.987000     -0.82      15.9994
   267   18   HT         5.371000   -3.873000   -0.604000      0.41       1.0080
   268   18   HT         5.084000   -2.998000   -1.986000      0.41       1.0080
   269   17   OT         7.285000  -10.026000  -14.907000     -0.82      15.9994
   270   18   HT         7.923000   -9.887000  -15.740000      0.41       1.0080
   271   18   HT         6.910000   -9.060000  -14.738000      0.41       1.0080
   272   17   OT         8.525000  -12.635000  -15.520000     -0.82      15.9994
   273   18   HT         7.888000  -13.232000  -15.013000      0.41       1.0080
   274   18   HT         8.075000  -12.553000  -16.454000      0.41       1.0080
   275   17   OT         2.897000  -10.590000  -10.873000     -0.82      15.9994
   276   18   HT         2.917000   -9.675000  -11.405000      0.41       1.0080
   277   18   HT         3.685000  -11.268000  -10.971000      0.41       1.0080
   278   17   OT        -5.893000    3.725000  -11.596000     -0.82      15.9994
   279   18   HT        -6.310000    4.404000  -10.999000      0.41       1.0080
   280   18   HT        -6.507000    3.249000  -12.224000      0.41       1.0080
   281   17   OT        -2.942000    0.426000  -15.548000     -0.82      15.9994
   282   18   HT        -3.004000    0.896000  -16.451000      0.41       1.0080
   283   18   HT        -1.919000    0.371000  -15.313000      0.41       1.0080
   284   17   OT        10.368000   -5.131000  -16.521000     -0.82      15.9994
   285   18   HT        10.018000   -5.459000  -15.603000      0.41       1.0080
   286   18   HT        10.188000   -4.158000  -16.860000      0.41       1.0080
   287   17   OT         4.831000   -9.685000    0.792000     -0.82      15.9994
   288   18   HT         5.752000   -9.187000    0.708000      0.41       1.0080
   289   18   HT         5.020000  -10.236000    1.675000      0.41       1.0080
   290   17   OT         9.193000   -3.999000   -7.122000     -0.82      15.9994
   291   18   HT         8.847000   -4.881000   -6.743000      0.41       1.0080
   292   18   HT         9.986000   -3.695000   -6.555000      0.41       1.0080
   293   19   _QM_       2.484000   -2.909000   -8.601000      0.00      15.9994
   294   20   _QM_       1.910000   -3.735000   -8.711000      0.00       1.0080
   295   20   _QM_       3.229000   -2.879000   -9.289000      0.00       1.0080
   296   17   OT        -4.935000    0.046000   -5.864000     -0.82      15.9994
   297   18   HT        -5.221000   -0.981000   -5.852000      0.41       1.0080
   298   18   HT        -4.443000    0.293000   -6.722000      0.41       1.0080
   299   17   OT         7.576000    5.159000   -3.391000     -0.82      15.9994
   300   18   HT         7.558000    6.106000   -3.714000      0.41       1.0080
   301   18   HT         7.646000    4.551000   -4.180000      0.41       1.0080
   302   17   OT        -4.611000    1.824000  -14.115000     -0.82      15.9994
   303   18   HT        -3.984000    1.313000  -14.787000      0.41       1.0080
   304   18   HT        -4.156000    2.719000  -13.921000      0.41       1.0080
   305   17   OT        -6.326000    1.766000  -20.587000     -0.82      15.9994
   306   18   HT        -5.337000    1.508000  -20.726000      0.41       1.0080
   307   18   HT        -6.433000    1.676000  -19.556000      0.41       1.0080
   308   17   OT       -10.415000    2.021000  -14.590000     -0.82      15.9994
   309   18   HT       -10.440000    2.906000  -15.131000      0.41       1.0080
   310   18   HT       -10.277000    2.245000  -13.617000      0.41       1.0080
   311   17   OT        -3.129000  -17.268000   -9.367000     -0.82      15.9994
   312   18   HT        -2.618000  -18.185000   -9.450000      0.41       1.0080
   313   18   HT        -4.053000  -17.418000   -9.010000      0.41       1.0080
   314   17   OT        12.029000   -3.116000    1.563000     -0.82      15.9994
   315   18   HT        12.956000   -3.506000    1.448000      0.41       1.0080
   316   18   HT        12.168000   -2.092000    1.623000      0.41       1.0080
   317   19   _QM_      -4.393000   -2.897000  -10.025000      0.00      15.9994
   318   20   _QM_      -3.919000   -2.819000  -10.940000      0.00       1.0080
   319   20   _QM_      -4.611000   -1.948000   -9.700000      0.00       1.0080
   320   17   OT        -7.420000    0.273000   -8.540000     -0.82      15.9994
   321   18   HT        -7.326000    1.121000   -7.938000      0.41       1.0080
   322   18   HT        -7.801000   -0.526000   -7.939000      0.41       1.0080
   323   17   OT       -11.284000  -15.378000  -12.932000     -0.82      15.9994
   324   18   HT       -12.069000  -14.799000  -12.716000      0.41       1.0080
   325   18   HT       -11.113000  -15.194000  -13.927000      0.41       1.0080
   326   17   OT         5.582000    1.179000  -10.290000     -0.82      15.9994
   327   18   HT         5.526000    0.791000   -9.350000      0.41       1.0080
   328   18   HT         4.568000    1.410000  -10.435000      0.41       1.0080
   329   17   OT         4.998000    1.294000  -13.639000     -0.82      15.9994
   330   18   HT         5.529000    0.861000  -14.369000      0.41       1.0080
   331   18   HT         5.474000    0.993000  -12.766000      0.41       1.0080
   332   17   OT         4.892000  -15.168000  -11.311000     -0.82      15.9994
   333   18   HT         4.608000  -14.222000  -11.469000      0.41       1.0080
   334   18   HT         4.341000  -15.815000  -11.897000      0.41       1.0080
   335   17   OT         2.851000    5.589000   -7.301000     -0.82      15.9994
   336   18   HT         3.207000    4.702000   -7.703000      0.41       1.0080
   337   18   HT         2.944000    5.424000   -6.309000      0.41       1.0080
   338   17   OT         1.963000    2.525000  -12.942000     -0.82      15.9994
   339   18   HT         1.593000    2.525000  -13.899000      0.41       1.0080
   340   18   HT         2.171000    3.492000  -12.828000      0.41       1.0080
   341   17   OT         9.685000    3.752000   -2.051000     -0.82      15.9994
   342   18   HT         9.069000    4.297000   -2.681000      0.41       1.0080
   343   18   HT        10.664000    3.659000   -2.440000      0.41       1.0080
   344   17   OT         0.080000  -12.945000   -1.238000     -0.82      15.9994
   345   18   HT        -0.428000  -13.417000   -1.990000      0.41       1.0080
   346   18   HT        -0.547000  -12.795000   -0.398000      0.41       1.0080
   347   17   OT         2.415000   -7.882000  -20.210000     -0.82      15.9994
   348   18   HT         3.368000   -7.388000  -20.157000      0.41       1.0080
   349   18   HT         2.609000   -8.867000  -20.182000      0.41       1.0080
   350   17   OT        -2.312000    1.523000  -18.066000     -0.82      15.9994
   351   18   HT        -1.539000    1.095000  -18.550000      0.41       1.0080
   352   18   HT        -3.133000    1.184000  -18.495000      0.41       1.0080
   353   17   OT         6.375000    0.160000   -4.499000     -0.82      15.9994
   354   18   HT         5.958000    1.061000   -4.354000      0.41       1.0080
   355   18   HT         6.913000   -0.305000   -3.706000      0.41       1.0080
   356   17   OT         1.212000    1.873000  -18.605000     -0.82      15.9994
   357   18   HT         1.464000    2.164000  -19.534000      0.41       1.0080
   358   18   HT         0.665000    2.558000  -18.146000      0.41       1.0080
   359   17   OT        11.376000  -13.917000  -20.618000     -0.82      15.9994
   360   18   HT        12.388000  -14.248000  -20.677000      0.41       1.0080
   361   18   HT        10.922000  -14.839000  -20.704000      0.41       1.0080
   362   17   OT        -0.260000    1.213000   -4.570000     -0.82      15.9994
   363   18   HT        -1.181000    1.013000   -4.165000      0.41       1.0080
   364   18   HT         0.119000    0.264000   -4.659000      0.41       1.0080
   365   17   OT         2.140000    5.060000  -14.366000     -0.82      15.9994
   366   18   HT         2.819000    4.677000  -15.059000      0.41       1.0080
   367   18   HT         1.199000    5.049000  -14.781000      0.41       1.0080
   368   17   OT         2.030000   -5.002000    0.183000     -0.82      15.9994
   369   18   HT         2.284000   -6.003000    0.123000      0.41       1.0080
   370   18   HT         1.332000   -4.803000   -0.588000      0.41       1.0080
   371   17   OT        -3.095000    4.366000  -14.141000     -0.82      15.9994
   372   18   HT        -3.739000    5.150000  -13.889000      0.41       1.0080
   373   18   HT        -2.389000    4.272000  -13.374000      0.41       1.0080
   374   17   OT         7.649000  -17.398000    1.412000     -0.82      15.9994
   375   18   HT         8.233000  -16.738000    0.850000      0.41       1.0080
   376   18   HT         7.740000  -18.384000    1.083000      0.41       1.0080
   377   17   OT         2.010000   -4.093000  -12.045000     -0.82      15.9994
   378   18   HT         1.091000   -3.876000  -11.733000      0.41       1.0080
   379   18   HT         2.652000   -3.752000  -11.281000      0.41       1.0080
   380   17   OT        -5.898000  -12.009000  -16.412000     -0.82      15.9994
   381   18   HT        -5.738000  -12.611000  -17.214000      0.41       1.0080
   382   18   HT        -5.597000  -11.067000  -16.663000      0.41       1.0080
   383   17   OT        -0.152000    2.130000    2.848000     -0.82      15.9994
   384   18   HT        -0.929000    2.684000    2.452000      0.41       1.0080
   385   18   HT         0.651000    2.677000  -21.016000      0.41       1.0080
   386   17   OT        -2.435000    4.367000   -3.629000     -0.82      15.9994
   387   18   HT        -2.592000    5.384000   -3.607000      0.41       1.0080
   388   18   HT        -1.915000    4.095000   -2.765000      0.41       1.0080
   389   17   OT        -8.614000   -1.419000   -6.907000     -0.82      15.9994
   390   18   HT        -8.559000   -2.473000   -6.780000      0.41       1.0080
   391   18   HT        -9.567000   -1.038000   -6.984000      0.41       1.0080
   392   17   OT        -9.574000  -12.732000   -8.289000     -0.82      15.9994
   393   18   HT        -9.661000  -11.720000   -8.183000      0.41       1.0080
   394   18   HT       -10.418000  -13.069000   -8.744000      0.41       1.0080
   395   19   _QM_      -1.890000   -1.542000   -5.385000      0.00      15.9994
   396   20   _QM_      -2.335000   -0.992000   -4.685000      0.00       1.0080
   397   20   _QM_      -2.169000   -1.076000   -6.272000      0.00       1.0080
   398   17   OT        -1.280000  -17.719000  -19.948000     -0.82      15.9994
   399   18   HT        -0.825000  -17.134000  -20.706000      0.41       1.0080
   400   18   HT        -2.251000  -17.587000  -19.968000      0.41       1.0080
   401   17   OT        -3.640000    4.409000    0.964000     -0.82      15.9994
   402   18   HT        -4.414000    4.709000    1.536000      0.41       1.0080
   403   18   HT        -4.279000    3.854000    0.346000      0.41       1.0080
   404   17   OT        -5.114000   -8.285000   -7.726000     -0.82      15.9994
   405   18   HT        -5.379000   -8.887000   -6.970000      0.41       1.0080
   406   18   HT        -4.176000   -8.726000   -7.795000      0.41       1.0080
   407   17   OT         5.686000  -15.186000   -0.191000     -0.82      15.9994
   408   18   HT         5.278000  -15.073000   -1.136000      0.41       1.0080
   409   18   HT         6.305000  -15.947000   -0.240000      0.41       1.0080
   410   17   OT       -10.112000   -4.777000    1.315000     -0.82      15.9994
   411   18   HT        -9.137000   -4.624000    1.601000      0.41       1.0080
   412   18   HT       -10.076000   -4.918000    0.321000      0.41       1.0080
   413   17   OT        -7.196000   -2.812000   -9.170000     -0.82      15.9994
   414   18   HT        -7.961000   -2.530000   -8.576000      0.41       1.0080
   415   18   HT        -6.338000   -2.431000   -8.800000      0.41       1.0080
   416   17   OT       -11.071000  -16.876000  -10.407000     -0.82      15.9994
   417   18   HT       -11.359000  -16.288000  -11.240000      0.41       1.0080
   418   18   HT       -10.251000  -16.292000  -10.172000      0.41       1.0080
   419   17   OT         9.266000   -9.863000  -19.912000     -0.82      15.9994
   420   18   HT        10.285000   -9.697000  -20.003000      0.41       1.0080
   421   18   HT         8.900000   -8.880000  -19.959000      0.41       1.0080
   422   17   OT        -0.315000  -11.675000   -9.889000     -0.82      15.9994
   423   18   HT        -0.901000  -12.195000   -9.217000      0.41       1.0080
   424   18   HT         0.138000  -10.981000   -9.308000      0.41       1.0080
   425   17   OT        -7.688000  -13.328000  -20.172000     -0.82      15.9994
   426   18   HT        -7.311000  -12.568000  -19.592000      0.41       1.0080
   427   18   HT        -8.652000  -13.040000  -20.286000      0.41       1.0080
   428   17   OT        -2.999000  -13.373000  -10.654000     -0.82      15.9994
   429   18   HT        -3.933000  -12.916000  -10.398000      0.41       1.0080
   430   18   HT        -2.997000  -14.215000  -11.264000      0.41       1.0080
   431   17   OT         7.484000    5.956000  -18.708000     -0.82      15.9994
   432   18   HT         7.630000    6.923000  -18.462000      0.41       1.0080
   433   18   HT         6.494000    5.788000  -18.560000      0.41       1.0080
   434   17   OT         9.662000    1.544000   -5.818000     -0.82      15.9994
   435   18   HT         8.779000    1.973000   -5.590000      0.41       1.0080
   436   18   HT        10.136000    1.204000   -4.947000      0.41       1.0080
   437   17   OT        -1.176000   -4.633000  -18.909000     -0.82      15.9994
   438   18   HT        -0.651000   -5.277000  -19.508000      0.41       1.0080
   439   18   HT        -0.436000   -4.198000  -18.370000      0.41       1.0080
   440   17   OT         8.461000  -12.352000   -5.152000     -0.82      15.9994
   441   18   HT         9.110000  -12.813000   -4.463000      0.41       1.0080
   442   18   HT         7.503000  -12.709000   -5.065000      0.41       1.0080
   443   17   OT         7.108000  -16.746000   -4.363000     -0.82      15.9994
   444   18   HT         7.581000  -15.935000   -4.819000      0.41       1.0080
   445   18   HT         6.456000  -17.084000   -5.044000      0.41       1.0080
   446   17   OT        -9.366000  -10.058000   -8.075000     -0.82      15.9994
   447   18   HT       -10.141000   -9.633000   -8.597000      0.41       1.0080
   448   18   HT        -8.559000   -9.639000   -8.492000      0.41       1.0080
   449   17   OT         4.164000   -0.347000  -19.013000     -0.82      15.9994
   450   18   HT         3.730000   -0.791000  -18.183000      0.41       1.0080
   451   18   HT         3.583000   -0.381000  -19.868000      0.41       1.0080
   452   17   OT        -9.459000   -8.917000    1.319000     -0.82      15.9994
   453   18   HT        -9.423000   -8.452000    2.225000      0.41       1.0080
   454   18   HT        -8.608000   -9.505000    1.419000      0.41       1.0080
   455   17   OT       -10.730000   -9.472000  -17.816000     -0.82      15.9994
   456   18   HT       -10.240000   -8.601000  -17.974000      0.41       1.0080
   457   18   HT        -9.947000  -10.118000  -17.657000      0.41       1.0080
   458   17   OT        -3.874000  -16.489000    2.834000     -0.82      15.9994
   459   18   HT        -3.859000  -16.413000    1.820000      0.41       1.0080
   460   18   HT        -3.824000  -15.518000    3.167000      0.41       1.0080
   461   17   OT         1.737000  -10.401000   -8.441000     -0.82      15.9994
   462   18   HT         2.458000  -10.454000   -7.705000      0.41       1.0080
   463   18   HT         2.116000  -10.504000   -9.407000      0.41       1.0080
   464   17   OT        -7.572000  -16.646000   -0.655000     -0.82      15.9994
   465   18   HT        -7.217000  -15.715000   -0.498000      0.41       1.0080
   466   18   HT        -8.570000  -16.604000   -0.350000      0.41       1.0080
   467   17   OT         4.952000   -6.948000  -19.991000     -0.82      15.9994
   468   18   HT         5.326000   -5.979000  -20.137000      0.41       1.0080
   469   18   HT         5.725000   -7.580000  -20.269000      0.41       1.0080
   470   17   OT        -3.167000  -11.459000   -2.621000     -0.82      15.9994
   471   18   HT        -2.369000  -10.865000   -2.891000      0.41       1.0080
   472   18   HT        -3.735000  -11.742000   -3.435000      0.41       1.0080
   473   17   OT         5.095000  -18.247000    2.426000     -0.82      15.9994
   474   18   HT         4.993000  -18.552000    3.384000      0.41       1.0080
   475   18   HT         6.027000  -17.826000    2.361000      0.41       1.0080
   476   19   _QM_      -1.672000    0.700000  -12.071000      0.00      15.9994
   477   20   _QM_      -1.657000    1.294000  -12.897000      0.00       1.0080
   478   20   _QM_      -2.555000    0.802000  -11.520000      0.00       1.0080
   479   17   OT         1.582000    1.581000   -2.148000     -0.82      15.9994
[...]
  HFX_MEM_INFO| Size of density/Fock matrix [MB's]:                            8
  HFX_MEM_INFO| Size of buffers [MB's]:                                        0
  HFX_MEM_INFO| Number of periodic image cells considered:                    27
  HFX_MEM_INFO| Est. max. program size after HFX  [MB's]:                   1934

     1 OT DIIS     0.15E+00  506.6     0.00020065      -478.0853204874 -4.78E+02

  Trace(PS):                                  222.0000000000
  Electronic density on regular grids:       -221.9999999892        0.0000000108
  Core density on regular grids:              221.9999999923       -0.0000000077
  Total charge density on r-space grids:        0.0000000031
  Total charge density g-space grids:           0.0000000031

  Decoupling Energy:                                              -0.0012420970
  Recoupling Energy:                                               0.0003522791
  Adding QM/MM electrostatic potential to the Kohn-Sham potential.
     2 OT DIIS     0.15E+00  478.4     0.00008516      -478.0858540841 -5.34E-04

  Trace(PS):                                  222.0000000000
  Electronic density on regular grids:       -221.9999999892        0.0000000108
  Core density on regular grids:              221.9999999923       -0.0000000077
  Total charge density on r-space grids:        0.0000000031
  Total charge density g-space grids:           0.0000000031

  Decoupling Energy:                                              -0.0012453682
  Recoupling Energy:                                               0.0003534135
  Adding QM/MM electrostatic potential to the Kohn-Sham potential.
     3 OT DIIS     0.15E+00  481.2     0.00002206      -478.0859683677 -1.14E-04

  Trace(PS):                                  222.0000000000
  Electronic density on regular grids:       -221.9999999892        0.0000000108
  Core density on regular grids:              221.9999999923       -0.0000000077
  Total charge density on r-space grids:        0.0000000031
  Total charge density g-space grids:           0.0000000031

  Decoupling Energy:                                              -0.0012436503
  Recoupling Energy:                                               0.0003525110
  Adding QM/MM electrostatic potential to the Kohn-Sham potential.
     4 OT DIIS     0.15E+00  480.9     0.00000333      -478.0859709126 -2.54E-06

  *** SCF run converged in     4 steps ***


  Electronic density on regular grids:       -221.9999999892        0.0000000108
  Core density on regular grids:              221.9999999923       -0.0000000077
  Total charge density on r-space grids:        0.0000000031
  Total charge density g-space grids:           0.0000000031

  Overlap energy of the core charge distribution:               0.00000324263929
  Self energy of the core charge distribution:              -1200.92993666242228
  Core Hamiltonian energy:                                    347.20982456287436
  Hartree energy:                                             502.88254799895526
  Exchange-correlation energy:                                -93.33096217830810
  Hartree-Fock Exchange energy:                               -21.26018629845973
  Dispersion energy:                                           -0.06555501696837
  QM/MM Electrostatic energy:                                     -12.5917065609

  Total energy:                                              -478.08597091257803

  outer SCF iter =    1 RMS gradient =   0.33E-05 energy =       -478.0859709126
  outer SCF loop converged in   1 iterations or    4 steps



 MULLIKEN POPULATION ANALYSIS

 #  Atom  Element  Kind  Atomic population                Net charge
       1     H        1          0.577169                  0.422831
       2     H        1          0.646138                  0.353862
       3     H        1          0.602188                  0.397812
       4     H        1          0.655771                  0.344229
       5     H        1          0.676728                  0.323272
       6     H        1          0.573331                  0.426669
       7     H        1          0.660349                  0.339651
       8     H        1          0.582833                  0.417167
       9     H        1          0.578264                  0.421736
      10     H        1          0.602986                  0.397014
      11     H        1          0.564680                  0.435320
      12     H        1          0.593654                  0.406346
      13     H        1          0.610150                  0.389850
      14     H        1          0.626951                  0.373049
      15     H        1          0.581706                  0.418294
      16     H        1          0.591875                  0.408125
      17     H        1          0.580138                  0.419862
      18     H        1          0.636918                  0.363082
      19     H        1          0.580125                  0.419875
      20     H        1          0.633174                  0.366826
      21     H        1          0.617246                  0.382754
      22     H        1          0.607062                  0.392938
      23     H        1          0.648098                  0.351902
      24     H        1          0.611456                  0.388544
      25     H        1          0.603115                  0.396885
      26     H        1          0.604994                  0.395006
      27     H        1          0.591478                  0.408522
      28     H        1          0.623433                  0.376567
      29     H        1          0.614058                  0.385942
      30     H        1          0.633841                  0.366159
      31     H        1          0.614905                  0.385095
      32     H        1          0.603197                  0.396803
      33     H        1          0.575966                  0.424034
      34     H        1          0.601909                  0.398091
      35     H        1          0.565740                  0.434260
      36     H        1          0.561636                  0.438364
      37     H        1          0.587125                  0.412875
      38     H        1          0.600496                  0.399504
      39     H        1          0.603290                  0.396710
      40     H        1          0.608829                  0.391171
      41     H        1          0.605480                  0.394520
      42     H        1          0.582378                  0.417622
      43     H        1          0.598400                  0.401600
      44     H        1          0.626971                  0.373029
      45     H        1          0.631637                  0.368363
      46     H        1          0.597162                  0.402838
      47     H        1          0.625962                  0.374038
      48     H        1          0.599794                  0.400206
      49     H        1          0.594738                  0.405262
      50     O        2          6.759614                 -0.759614
      51     O        2          6.829199                 -0.829199
      52     O        2          6.752372                 -0.752372
      53     O        2          6.728453                 -0.728453
      54     O        2          6.822125                 -0.822125
      55     O        2          6.777591                 -0.777591
      56     O        2          6.849290                 -0.849290
      57     O        2          6.773772                 -0.773772
      58     O        2          6.842851                 -0.842851
      59     O        2          6.731481                 -0.731481
      60     O        2          6.733988                 -0.733988
      61     O        2          6.741386                 -0.741386
      62     O        2          6.805703                 -0.805703
      63     O        2          6.757439                 -0.757439
      64     O        2          6.750014                 -0.750014
      65     O        2          6.849377                 -0.849377
      66     O        2          6.816047                 -0.816047
      67     O        2          6.818095                 -0.818095
      68     O        2          6.777566                 -0.777566
      69     O        2          6.811734                 -0.811734
      70     O        2          6.767802                 -0.767802
      71     O        2          6.777926                 -0.777926
      72     O        2          6.817688                 -0.817688
      73     O        2          6.858700                 -0.858700
      74     H        1          0.874218                  0.125782
      75     H        1          0.887722                  0.112278
      76     H        1          0.902511                  0.097489
      77     H        1          0.860362                  0.139638
      78     C        3          4.294422                 -0.294422
      79     C        3          4.163898                 -0.163898
      80     C        3          3.222584                  0.777416
      81     O        2          6.624167                 -0.624167
      82     O        2          6.576374                 -0.576374
      83     H        4          0.948007                  0.051993
 # Total charge                222.000000                  0.000000


  Trace(PS):                                  222.0000000000
  Electronic density on regular grids:       -221.9999999892        0.0000000108
  Core density on regular grids:              221.9999999923       -0.0000000077
  Total charge density on r-space grids:        0.0000000031
  Total charge density g-space grids:           0.0000000031

  Decoupling Energy:                                              -0.0012439040
  Recoupling Energy:                                               0.0003526342
  Adding QM/MM electrostatic potential to the Kohn-Sham potential.

  HFX_MEM_INFO| Number of cart. primitive DERIV's calculated:        79068700776
  HFX_MEM_INFO| Number of sph. DERIV's calculated:                  160263052104
  HFX_MEM_INFO| Number of sph. DERIV's stored in-core:                         0
  HFX_MEM_INFO| Number of sph. DERIV's calculated on the fly:       160263052104
  HFX_MEM_INFO| Total memory consumption DERIV's RAM [MB's]                    0
  HFX_MEM_INFO| Whereof max-vals [MB's]:                                       1
  HFX_MEM_INFO| Total compression factor DERIV's RAM:                       0.00


 ENERGY| Total FORCE_EVAL ( QS ) energy (a.u.):             -478.085971014184224

 QMMM| Evaluating forces on MM atoms due to the:
 QMMM| - QM/MM Coupling computed collocating the Gaussian Potential Functions.
 QMMM| QM/MM Nuclear Electrostatic Potential :                      12.187114068
 QMMM| QMMM Total Energy (QM + QMMM electronic + QMMM nuclear):   -465.898856946
 QMMM| MM energy NOT included in the above term! Check for:  FORCE_EVAL ( QMMM )
 QMMM| that includes both QM, QMMM and MM energy terms!

 ENERGY| Total FORCE_EVAL ( QMMM ) energy (a.u.):           -472.455097972129295


 -------------------------------------------------------------------------------
 ----                             MULTIGRID INFO                            ----
 -------------------------------------------------------------------------------
 count for grid        1:         496882          cutoff [a.u.]          360.00
 count for grid        2:         357478          cutoff [a.u.]           90.00
 count for grid        3:         157821          cutoff [a.u.]           22.50
 count for grid        4:           9314          cutoff [a.u.]            5.62
 total gridlevel count  :        1021495

 -------------------------------------------------------------------------------
 -                                                                             -
 -                         MESSAGE PASSING PERFORMANCE                         -
 -                                                                             -
 -------------------------------------------------------------------------------

 ROUTINE             CALLS  TOT TIME [s]  AVE VOLUME [Bytes]  PERFORMANCE [MB/s]
 MP_Group               11         0.000
 MP_Bcast              391         0.022            4833313.            86689.23
 MP_Allreduce          693        90.570               5251.                0.04
 MP_Gather               4         0.003                400.                0.46
 MP_Sync                41        94.082
 MP_Alltoall            94         0.946           37597159.             3735.08
 MP_SendRecv           576         1.511             224981.               85.77
 MP_ISendRecv          665         0.002             193669.            55995.61
 MP_Wait              1368         1.021
 MP_comm_split           2         0.000
 MP_ISend              625         0.006            1733948.           183680.93
 MP_IRecv              624         0.006            1735073.           189944.79
 MP_Recv                 9         0.000             107904.             3237.12
 -------------------------------------------------------------------------------


 -------------------------------------------------------------------------------
 -                                                                             -
 -                           R E F E R E N C E S                               -
 -                                                                             -
 -------------------------------------------------------------------------------
 
 CP2K version 2.4.0, the CP2K developers group (2013).
 CP2K is freely available from http://www.cp2k.org/ .

 Grimme, S; Antony, J; Ehrlich, S; Krieg, H. 
 JOURNAL OF CHEMICAL PHYSICS, 132 (15), 154104 (2010). 
 A consistent and accurate ab initio parametrization of density
 functional dispersion correction (DFT-D) for the 94 elements H-Pu.
 http://dx.doi.org/10.1063/1.3382344


 Guidon, M; Hutter, J; VandeVondele, J. 
 JOURNAL OF CHEMICAL THEORY AND COMPUTATION, 5 (11), 3010-3021 (2009). 
 Robust Periodic Hartree-Fock Exchange for Large-Scale Simulations Using
 Gaussian Basis Sets.
 http://dx.doi.org/10.1021/ct900494g


 Guidon, M; Schiffmann, F; Hutter, J; VandeVondele, J. 
 JOURNAL OF CHEMICAL PHYSICS, 128 (21), 214104 (2008). 
 Ab initio molecular dynamics using hybrid density functionals.
 http://dx.doi.org/10.1063/1.2931945


 Laino, T; Mohamed, F; Laio, A; Parrinello, M. 
 JOURNAL OF CHEMICAL THEORY AND COMPUTATION, 2 (5), 1370-1378 (2006). 
 An efficient linear-scaling electrostatic coupling for treating
 periodic boundary conditions in QM/MM simulations.
 http://dx.doi.org/10.1021/ct6001169


 Laino, T; Mohamed, F; Laio, A; Parrinello, M. 
 JOURNAL OF CHEMICAL THEORY AND COMPUTATION, 1 (6), 1176-1184 (2005). 
 An efficient real space multigrid OM/MM electrostatic coupling.
 http://dx.doi.org/10.1021/ct050123f


 Krack, M. 
 THEORETICAL CHEMISTRY ACCOUNTS, 114 (1-3), 145-152 (2005). 
 Pseudopotentials for H to Kr optimized for gradient-corrected
 exchange-correlation functionals.
 http://dx.doi.org/10.1007/s00214-005-0655-y


 VandeVondele, J; Krack, M; Mohamed, F; Parrinello, M; Chassaing, T;
 Hutter, J. COMPUTER PHYSICS COMMUNICATIONS, 167 (2), 103-128 (2005). 
 QUICKSTEP: Fast and accurate density functional calculations using a
 mixed Gaussian and plane waves approach.
 http://dx.doi.org/10.1016/j.cpc.2004.12.014


 Frigo, M; Johnson, SG. 
 PROCEEDINGS OF THE IEEE, 93 (2), 216-231 (2005). 
 The design and implementation of FFTW3.
 http://dx.doi.org/10.1109/JPROC.2004.840301


 VandeVondele, J; Hutter, J. 
 JOURNAL OF CHEMICAL PHYSICS, 118 (10), 4365-4369 (2003). 
 An efficient orbital transformation method for electronic structure
 calculations.
 http://dx.doi.org/10.1063/1.1543154


 Hartwigsen, C; Goedecker, S; Hutter, J. 
 PHYSICAL REVIEW B, 58 (7), 3641-3662 (1998). 
 Relativistic separable dual-space Gaussian pseudopotentials from H to Rn.
 http://dx.doi.org/10.1103/PhysRevB.58.3641


 Lippert, G; Hutter, J; Parrinello, M. 
 MOLECULAR PHYSICS, 92 (3), 477-487 (1997). 
 A hybrid Gaussian and plane wave density functional scheme.
 http://dx.doi.org/10.1080/002689797170220


 Goedecker, S; Teter, M; Hutter, J. 
 PHYSICAL REVIEW B, 54 (3), 1703-1710 (1996). 
 Separable dual-space Gaussian pseudopotentials.
 http://dx.doi.org/10.1103/PhysRevB.54.1703


 ESSMANN, U; PERERA, L; BERKOWITZ, ML; DARDEN, T; LEE, H; PEDERSEN, LG. 
 JOURNAL OF CHEMICAL PHYSICS, 103 (19), 8577-8593 (1995). 
 A SMOOTH PARTICLE MESH EWALD METHOD.
 http://dx.doi.org/10.1063/1.470117


 BLOCHL, PE. 
 JOURNAL OF CHEMICAL PHYSICS, 103 (17), 7422-7428 (1995). 
 ELECTROSTATIC DECOUPLING OF PERIODIC IMAGES OF PLANE-WAVE-EXPANDED
 DENSITIES AND DERIVED ATOMIC POINT CHARGES.
 http://dx.doi.org/10.1063/1.470314


 BECKE, AD. PHYSICAL REVIEW A, 38 (6), 3098-3100 (1988). 
 DENSITY-FUNCTIONAL EXCHANGE-ENERGY APPROXIMATION WITH CORRECT
 ASYMPTOTIC-BEHAVIOR.
 http://dx.doi.org/10.1103/PhysRevA.38.3098


 LEE, CT; YANG, WT; PARR, RG. 
 PHYSICAL REVIEW B, 37 (2), 785-789 (1988). 
 DEVELOPMENT OF THE COLLE-SALVETTI CORRELATION-ENERGY FORMULA INTO A
 FUNCTIONAL OF THE ELECTRON-DENSITY.
 http://dx.doi.org/10.1103/PhysRevB.37.785


 VOSKO, SH; WILK, L; NUSAIR, M. 
 CANADIAN JOURNAL OF PHYSICS, 58 (8), 1200-1211 (1980). 
 ACCURATE SPIN-DEPENDENT ELECTRON LIQUID CORRELATION ENERGIES FOR LOCAL
 SPIN-DENSITY CALCULATIONS - A CRITICAL ANALYSIS.
 http://dx.doi.org/10.1139/p80-159


 -------------------------------------------------------------------------------
 -                                                                             -
 -                                T I M I N G                                  -
 -                                                                             -
 -------------------------------------------------------------------------------
 SUBROUTINE                       CALLS  ASD         SELF TIME        TOTAL TIME
                                              AVERAGE  MAXIMUM  AVERAGE  MAXIMUM
 CP2K                                 1  1.0    0.445    0.531 3072.424 3072.441
 qs_forces                            1  2.0    0.010    0.018 3063.102 3063.120
 qs_ks_build_kohn_sham_matrix         5  6.4    0.014    0.018 3053.791 3053.793
 hfx_ks_matrix                        5  7.4    0.006    0.009 3041.253 3041.263
 integrate_four_center                5  8.4  117.556  282.674 2407.928 2407.940
 integrate_four_center_main           5  9.4    0.004    0.011 2288.805 2404.410
 integrate_four_center_bin          320 10.4 2288.801 2404.405 2288.801 2404.405
 qs_energies_scf                      1  3.0    0.026    0.044 1951.959 1951.970
 scf_env_do_scf                       1  4.0    0.000    0.001 1948.998 1948.999
 qs_ks_update_qs_env                  5  6.0    0.000    0.000 1942.751 1942.757
 scf_env_do_scf_inner_loop            4  5.0    0.002    0.004 1442.510 1442.516
 qs_ks_update_qs_env_forces           1  3.0    0.000    0.000 1111.050 1111.050
 derivatives_four_center              1  6.0    0.200    0.203  633.316  633.317
 derivatives_four_center_main         1  7.0   45.028   89.585  632.858  632.859
 derivatives_four_center_bin         64  8.0  587.830  632.856  587.830  632.856
 init_scf_loop                        1  5.0    0.005    0.009  506.487  506.497
 -------------------------------------------------------------------------------

  **** **** ******  **  PROGRAM ENDED AT                 2016-12-23 22:06:50.153
 ***** ** ***  *** **   PROGRAM RAN ON                                 midway532
 **    ****   ******    PROGRAM RAN BY                                          
 ***** **    ** ** **   PROGRAM PROCESS ID                                  2416
  **** **  *******  **  PROGRAM STOPPED IN /project/gavoth/hmayes/asp_glu_in_wat
                                           er/glu_3.2_cp2k/cp2k_files
