 DBCSR| Multiplication driver                                                SMM
 DBCSR| Multiplication stack size                                           1000
 DBCSR| Multiplication size stacks                                             0
 DBCSR| Use subcommunicators                                                   T
 DBCSR| Use MPI combined types                                                 F
 DBCSR| Use MPI memory allocation                                              T
 DBCSR| Use Communication thread                                               T
 DBCSR| Communication thread load                                            100


  **** **** ******  **  PROGRAM STARTED AT               2016-12-23 06:33:39.016
 ***** ** ***  *** **   PROGRAM STARTED ON                             midway552
 **    ****   ******    PROGRAM STARTED BY                                      
 ***** **    ** ** **   PROGRAM PROCESS ID                                 24343
  **** **  *******  **  PROGRAM STARTED IN /project/gavoth/hmayes/asp_glu_in_wat
                                           er/glu_3.2_cp2k/cp2k_files

 CP2K| version string:                                        CP2K version 2.4.0
 CP2K| source code revision number:                                        12993
 CP2K| is freely available from                             http://www.cp2k.org/
 CP2K| Program compiled at                          Tue Aug 20 13:25:30 CDT 2013
 CP2K| Program compiled on                                         midway-login1
 CP2K| Program compiled for                                  Linux-x86-64-midway
 CP2K| Input file name                                            glu_2.5_1.0.in
 
 GLOBAL| Force Environment number                                              1
 GLOBAL| Basis set file name                  ../input/cp2k_files/GTH_BASIS_SETS
 GLOBAL| Geminal file name                                         BASIS_GEMINAL
 GLOBAL| Potential file name                  ../input/cp2k_files/GTH_POTENTIALS
 GLOBAL| MM Potential file name                                     MM_POTENTIAL
 GLOBAL| Coordinate file name                 ../fix_min/glu_2.5_1.0_wrapped.pdb
 GLOBAL| Method name                                                        CP2K
 GLOBAL| Project name                                                glu_2.5_1.0
 GLOBAL| Preferred FFT library                                             FFTW3
 GLOBAL| Run type                                                   ENERGY_FORCE
 GLOBAL| All-to-all communication in single precision                          F
 GLOBAL| FFTs using library dependent lengths                                  F
 GLOBAL| Global print level                                               MEDIUM
 GLOBAL| Total number of message passing processes                            20
 GLOBAL| Number of threads for this process                                    1
 GLOBAL| This output is from process                                           0

 MEMORY| system memory details [Kb]
 MEMORY|                        rank 0           min           max       average
 MEMORY| MemTotal             66075984      66075984      66075984      66075984
 MEMORY| MemFree              60992028      60935360      60992028      60986255
 MEMORY| Buffers                     0             0             0             0
 MEMORY| Cached                1230076       1228640       1230076       1229843
 MEMORY| Slab                   232156        232148        232156        232154
 MEMORY| SReclaimable            33980         33980         33980         33980
 MEMORY| MemLikelyFree        62256084      62197980      62256084      62250079


 *** Fundamental physical constants (SI units) ***

 *** Literature: B. J. Mohr and B. N. Taylor,
 ***             CODATA recommended values of the fundamental physical
 ***             constants: 2006, Web Version 5.1
 ***             http://physics.nist.gov/constants

 Speed of light in vacuum [m/s]                             2.99792458000000E+08
 Magnetic constant or permeability of vacuum [N/A**2]       1.25663706143592E-06
 Electric constant or permittivity of vacuum [F/m]          8.85418781762039E-12
 Planck constant (h) [J*s]                                  6.62606896000000E-34
 Planck constant (h-bar) [J*s]                              1.05457162825177E-34
 Elementary charge [C]                                      1.60217648700000E-19
 Electron mass [kg]                                         9.10938215000000E-31
 Electron g factor [ ]                                     -2.00231930436220E+00
 Proton mass [kg]                                           1.67262163700000E-27
 Fine-structure constant                                    7.29735253760000E-03
 Rydberg constant [1/m]                                     1.09737315685270E+07
 Avogadro constant [1/mol]                                  6.02214179000000E+23
 Boltzmann constant [J/K]                                   1.38065040000000E-23
 Atomic mass unit [kg]                                      1.66053878200000E-27
 Bohr radius [m]                                            5.29177208590000E-11

 *** Conversion factors ***

 [u] -> [a.u.]                                              1.82288848426455E+03
 [Angstrom] -> [Bohr] = [a.u.]                              1.88972613288564E+00
 [a.u.] = [Bohr] -> [Angstrom]                              5.29177208590000E-01
 [a.u.] -> [s]                                              2.41888432650478E-17
 [a.u.] -> [fs]                                             2.41888432650478E-02
 [a.u.] -> [J]                                              4.35974393937059E-18
 [a.u.] -> [K]                                              3.15774647902944E+05
 [a.u.] -> [kJ/mol]                                         2.62549961709828E+03
 [a.u.] -> [kcal/mol]                                       6.27509468713739E+02
 [a.u.] -> [Pa]                                             2.94210107994716E+13
 [a.u.] -> [bar]                                            2.94210107994716E+08
 [a.u.] -> [atm]                                            2.90362800883016E+08
 [a.u.] -> [eV]                                             2.72113838565563E+01
 [a.u.] -> [Hz]                                             6.57968392072181E+15
 [a.u.] -> [1/cm] (wave numbers)                            2.19474631370540E+05
 [a.u./Bohr**2] -> [1/cm]                                   5.14048714338585E+03
 


                      ************* ******** ***********   
                     ************* **********************  
                     ****     **** ****      ***********   
                     ******** ****  *******     ****       
                     *******  ****   *******   ****        
                     ****     ****       ****  ****        
                     ****     **** **********  ****        
                      ****     **** ********    ****       
                     FRONTIERS IN SIMULATION TECHNOLOGY    
                                                           
                        C.J. Mundy, S. Balasubramanian,    
                     Ken Bagchi, J. Hutter, Ari Seitsonen  
                      IFW Kuo, T. Laino, J. VandeVondele   
                                 Version 1.0               

                                                           


 CELL| Volume [angstrom^3]:                                            14259.422
 CELL| Vector a [angstrom]:      24.249     0.000     0.000    |a| =      24.249
 CELL| Vector b [angstrom]:       0.000    24.249     0.000    |b| =      24.249
 CELL| Vector c [angstrom]:       0.000     0.000    24.249    |c| =      24.249
 CELL| Angle (b,c), alpha [degree]:                                       90.000
 CELL| Angle (a,c), beta  [degree]:                                       90.000
 CELL| Angle (a,b), gamma [degree]:                                       90.000
 CELL| Orthorhombic:                                                         YES

 CELL_REF| Volume [angstrom^3]:                                        14259.422
 CELL_REF| Vector a [angstrom    24.249     0.000     0.000    |a| =      24.249
 CELL_REF| Vector b [angstrom     0.000    24.249     0.000    |b| =      24.249
 CELL_REF| Vector c [angstrom     0.000     0.000    24.249    |c| =      24.249
 CELL_REF| Angle (b,c), alpha [degree]:                                   90.000
 CELL_REF| Angle (a,c), beta  [degree]:                                   90.000
 CELL_REF| Angle (a,b), gamma [degree]:                                   90.000
 CELL_REF| Orthorhombic:                                                     YES

 EWALD| Summation is done by:                                               SPME
 EWALD| Alpha parameter [       ANGSTROM^-1]                              0.3500
 EWALD| Real Space Cutoff [          ANGSTROM]                            9.6398
 EWALD| G-space max. Miller index                         24        24        24
 EWALD| Spline interpolation order                                             6

 CELL_TOP| Volume [angstrom^3]:                                        14259.422
 CELL_TOP| Vector a [angstrom    24.249     0.000     0.000    |a| =      24.249
 CELL_TOP| Vector b [angstrom     0.000    24.249     0.000    |b| =      24.249
 CELL_TOP| Vector c [angstrom     0.000     0.000    24.249    |c| =      24.249
 CELL_TOP| Angle (b,c), alpha [degree]:                                   90.000
 CELL_TOP| Angle (a,c), beta  [degree]:                                   90.000
 CELL_TOP| Angle (a,b), gamma [degree]:                                   90.000
 CELL_TOP| Orthorhombic:                                                     YES
 
 FORCEFIELD| WARNING: A non Critical ForceField parameter is missing! CP2K GOES!
 FORCEFIELD| Non critical parameters are:Urey-Bradley,Torsions,Impropers, Opbends and 1-4
 FORCEFIELD| All missing parameters will not contribute to the potential energy!
 FORCEFIELD| Activate the print key FF_INFO to have a list of missing parameters
 
 CHARGE_INFO| Total Charge of the Classical System:                     0.000000

 SPLINE_INFO| Generating 210 splines for the NONBONDED14 interactions due to 20 different atomic kinds
 ...21
 ...42
 ...63
 ...84
 ...105
 ...126
 ...147
 ...168
 ...189
 ...210

 SPLINE_INFO| Number of unique splines computed:            96

 SPLINE_INFO| Done

 SPLINE_INFO| Generating 210 splines for the NONBONDED interactions due to 20 different atomic kinds
 ...21
 ...42
 ...63
 ...84
 ...105
 ...126
 ...147
 ...168
 ...189
 ...210

 SPLINE_INFO| Number of unique splines computed:            96

 SPLINE_INFO| Done


 MOLECULE KIND INFORMATION

     1. Molecule kind: _QM_P1                    Number of atoms:             27
                     Atom         Atomic kind name
                        1                        C
                        2                        O
                        3                      NH1
                        4                        H
                        5                      CT3
                        6                      HA3
                        7                      HA3
                        8                      HA3
                        9                      CT3
                       10                      HA3
                       11                      HA3
                       12                      HA3
                       13                        C
                       14                        O
                       15                      NH1
                       16                        H
                       17             _LNK1_QM_CT1
                       18                      HB1
                       19                 _QM_CT2A
                       20                  _QM_HA2
                       21                  _QM_HA2
                       22                  _QM_CT2
                       23                  _QM_HA2
                       24                  _QM_HA2
                       25                   _QM_CC
                       26                   _QM_OC
                       27                   _QM_OC

        The name was automatically generated: F
        Number of molecules:      1
        Molecule list:                1
        Number of bonds:           17
        Number of bends:           30
        Number of torsions:        41
        Number of improper:         4

     2. Molecule kind: _QM_O1                    Number of atoms:              4
                     Atom         Atomic kind name
                        1                  _QM_OTH
                        2                  _QM_HTH
                        3                  _QM_HTH
                        4                  _QM_HTH

        The name was automatically generated: F
        Number of molecules:      1
        Molecule list:                2

     3. Molecule kind: W1                        Number of atoms:              3
                     Atom         Atomic kind name
                        1                       OT
                        2                       HT
                        3                       HT

        The name was automatically generated: F
        Number of molecules:      7
        Molecule list:                3         4         5         6         7
                                      8         9
        Number of bonds:            2
        Number of bends:            1

     4. Molecule kind: _QM_W1                    Number of atoms:              3
                     Atom         Atomic kind name
                        1                   _QM_OT
                        2                   _QM_HT
                        3                   _QM_HT

        The name was automatically generated: F
        Number of molecules:      1
        Molecule list:               10

     5. Molecule kind: W1                        Number of atoms:              3
                     Atom         Atomic kind name
                        1                       OT
                        2                       HT
                        3                       HT

        The name was automatically generated: F
        Number of molecules:      9
        Molecule list:               11        12        13        14        15
                                     16        17        18        19
        Number of bonds:            2
        Number of bends:            1

     6. Molecule kind: _QM_W1                    Number of atoms:              3
                     Atom         Atomic kind name
                        1                   _QM_OT
                        2                   _QM_HT
                        3                   _QM_HT

        The name was automatically generated: F
        Number of molecules:      1
        Molecule list:               20

     7. Molecule kind: W1                        Number of atoms:              3
                     Atom         Atomic kind name
                        1                       OT
                        2                       HT
                        3                       HT

        The name was automatically generated: F
        Number of molecules:      9
        Molecule list:               21        22        23        24        25
                                     26        27        28        29
        Number of bonds:            2
        Number of bends:            1

     8. Molecule kind: _QM_W1                    Number of atoms:              3
                     Atom         Atomic kind name
                        1                   _QM_OT
                        2                   _QM_HT
                        3                   _QM_HT

        The name was automatically generated: F
        Number of molecules:      1
        Molecule list:               30

     9. Molecule kind: W1                        Number of atoms:              3
                     Atom         Atomic kind name
                        1                       OT
                        2                       HT
                        3                       HT

        The name was automatically generated: F
        Number of molecules:    103
        Molecule list:               31        32        33        34        35
                                     36        37        38        39        40
                                     41        42        43        44        45
                                     46        47        48        49        50
                                     51        52        53        54        55
                                     56        57        58        59        60
                                     61        62        63        64        65
                                     66        67        68        69        70
                                     71        72        73        74        75
                                     76        77        78        79        80
                                     81        82        83        84        85
                                     86        87        88        89        90
                                     91        92        93        94        95
                                     96        97        98        99       100
                                    101       102       103       104       105
                                    106       107       108       109       110
                                    111       112       113       114       115
                                    116       117       118       119       120
                                    121       122       123       124       125
                                    126       127       128       129       130
                                    131       132       133
        Number of bonds:            2
        Number of bends:            1

    10. Molecule kind: _QM_W1                    Number of atoms:              3
                     Atom         Atomic kind name
                        1                   _QM_OT
                        2                   _QM_HT
                        3                   _QM_HT

        The name was automatically generated: F
        Number of molecules:      1
        Molecule list:              134

    11. Molecule kind: W1                        Number of atoms:              3
                     Atom         Atomic kind name
                        1                       OT
                        2                       HT
                        3                       HT

        The name was automatically generated: F
        Number of molecules:     25
        Molecule list:              135       136       137       138       139
                                    140       141       142       143       144
                                    145       146       147       148       149
                                    150       151       152       153       154
                                    155       156       157       158       159
        Number of bonds:            2
        Number of bends:            1

    12. Molecule kind: _QM_W1                    Number of atoms:              3
                     Atom         Atomic kind name
                        1                   _QM_OT
                        2                   _QM_HT
                        3                   _QM_HT

        The name was automatically generated: F
        Number of molecules:      1
        Molecule list:              160

    13. Molecule kind: W1                        Number of atoms:              3
                     Atom         Atomic kind name
                        1                       OT
                        2                       HT
                        3                       HT

        The name was automatically generated: F
        Number of molecules:     80
        Molecule list:              161       162       163       164       165
                                    166       167       168       169       170
                                    171       172       173       174       175
                                    176       177       178       179       180
                                    181       182       183       184       185
                                    186       187       188       189       190
                                    191       192       193       194       195
                                    196       197       198       199       200
                                    201       202       203       204       205
                                    206       207       208       209       210
                                    211       212       213       214       215
                                    216       217       218       219       220
                                    221       222       223       224       225
                                    226       227       228       229       230
                                    231       232       233       234       235
                                    236       237       238       239       240
        Number of bonds:            2
        Number of bends:            1

    14. Molecule kind: _QM_W1                    Number of atoms:              3
                     Atom         Atomic kind name
                        1                   _QM_OT
                        2                   _QM_HT
                        3                   _QM_HT

        The name was automatically generated: F
        Number of molecules:      1
        Molecule list:              241

    15. Molecule kind: W1                        Number of atoms:              3
                     Atom         Atomic kind name
                        1                       OT
                        2                       HT
                        3                       HT

        The name was automatically generated: F
        Number of molecules:     74
        Molecule list:              242       243       244       245       246
                                    247       248       249       250       251
                                    252       253       254       255       256
                                    257       258       259       260       261
                                    262       263       264       265       266
                                    267       268       269       270       271
                                    272       273       274       275       276
                                    277       278       279       280       281
                                    282       283       284       285       286
                                    287       288       289       290       291
                                    292       293       294       295       296
                                    297       298       299       300       301
                                    302       303       304       305       306
                                    307       308       309       310       311
                                    312       313       314       315
        Number of bonds:            2
        Number of bends:            1

    16. Molecule kind: _QM_W1                    Number of atoms:              3
                     Atom         Atomic kind name
                        1                   _QM_OT
                        2                   _QM_HT
                        3                   _QM_HT

        The name was automatically generated: F
        Number of molecules:      1
        Molecule list:              316

    17. Molecule kind: W1                        Number of atoms:              3
                     Atom         Atomic kind name
                        1                       OT
                        2                       HT
                        3                       HT

        The name was automatically generated: F
        Number of molecules:     17
        Molecule list:              317       318       319       320       321
                                    322       323       324       325       326
                                    327       328       329       330       331
                                    332       333
        Number of bonds:            2
        Number of bends:            1

    18. Molecule kind: _QM_W1                    Number of atoms:              3
                     Atom         Atomic kind name
                        1                   _QM_OT
                        2                   _QM_HT
                        3                   _QM_HT

        The name was automatically generated: F
        Number of molecules:      1
        Molecule list:              334

    19. Molecule kind: W1                        Number of atoms:              3
                     Atom         Atomic kind name
                        1                       OT
                        2                       HT
                        3                       HT

        The name was automatically generated: F
        Number of molecules:     47
        Molecule list:              335       336       337       338       339
                                    340       341       342       343       344
                                    345       346       347       348       349
                                    350       351       352       353       354
                                    355       356       357       358       359
                                    360       361       362       363       364
                                    365       366       367       368       369
                                    370       371       372       373       374
                                    375       376       377       378       379
                                    380       381
        Number of bonds:            2
        Number of bends:            1

    20. Molecule kind: _QM_W1                    Number of atoms:              3
                     Atom         Atomic kind name
                        1                   _QM_OT
                        2                   _QM_HT
                        3                   _QM_HT

        The name was automatically generated: F
        Number of molecules:      1
        Molecule list:              382

    21. Molecule kind: W1                        Number of atoms:              3
                     Atom         Atomic kind name
                        1                       OT
                        2                       HT
                        3                       HT

        The name was automatically generated: F
        Number of molecules:     11
        Molecule list:              383       384       385       386       387
                                    388       389       390       391       392
                                    393
        Number of bonds:            2
        Number of bends:            1

    22. Molecule kind: _QM_W1                    Number of atoms:              3
                     Atom         Atomic kind name
                        1                   _QM_OT
                        2                   _QM_HT
                        3                   _QM_HT

        The name was automatically generated: F
        Number of molecules:      1
        Molecule list:              394

    23. Molecule kind: W1                        Number of atoms:              3
                     Atom         Atomic kind name
                        1                       OT
                        2                       HT
                        3                       HT

        The name was automatically generated: F
        Number of molecules:     17
        Molecule list:              395       396       397       398       399
                                    400       401       402       403       404
                                    405       406       407       408       409
                                    410       411
        Number of bonds:            2
        Number of bends:            1

    24. Molecule kind: _QM_W1                    Number of atoms:              3
                     Atom         Atomic kind name
                        1                   _QM_OT
                        2                   _QM_HT
                        3                   _QM_HT

        The name was automatically generated: F
        Number of molecules:      1
        Molecule list:              412

    25. Molecule kind: W1                        Number of atoms:              3
                     Atom         Atomic kind name
                        1                       OT
                        2                       HT
                        3                       HT

        The name was automatically generated: F
        Number of molecules:     14
        Molecule list:              413       414       415       416       417
                                    418       419       420       421       422
                                    423       424       425       426
        Number of bonds:            2
        Number of bends:            1

    26. Molecule kind: _QM_W1                    Number of atoms:              3
                     Atom         Atomic kind name
                        1                   _QM_OT
                        2                   _QM_HT
                        3                   _QM_HT

        The name was automatically generated: F
        Number of molecules:      1
        Molecule list:              427

    27. Molecule kind: W1                        Number of atoms:              3
                     Atom         Atomic kind name
                        1                       OT
                        2                       HT
                        3                       HT

        The name was automatically generated: F
        Number of molecules:     41
        Molecule list:              428       429       430       431       432
                                    433       434       435       436       437
                                    438       439       440       441       442
                                    443       444       445       446       447
                                    448       449       450       451       452
                                    453       454       455       456       457
                                    458       459       460       461       462
                                    463       464       465       466       467
                                    468
        Number of bonds:            2
        Number of bends:            1


 MOLECULE KIND SET INFORMATION               Total Number of bonds:          925
                                             Total Number of bends:          484
                                             Total Number of Urey-Bradley:     0
                                             Total Number of torsions:        41
                                             Total Number of improper:         4
                                              Total Number of opbends:         0


 MODULE FIST:  ATOMIC COORDINATES IN angstrom

  Atom  Kind  ATM_TYP       X           Y           Z          q(eff)       Mass

     1    1   C          2.221000    6.285000    8.637000      0.51      12.0110
     2    2   O          1.206000    6.982000    8.928000     -0.51      15.9990
     3    3   NH1        3.236000    6.796000    7.998000     -0.47      14.0070
     4    4   H          3.853000    6.185000    7.471000      0.31       1.0080
     5    5   CT3        3.436000    8.206000    7.640000     -0.11      12.0110
     6    6   HA3        4.511000    8.435000    7.305000      0.09       1.0080
     7    6   HA3        2.772000    8.480000    6.817000      0.09       1.0080
     8    6   HA3        3.222000    8.889000    8.449000      0.09       1.0080
     9    7   CT3       -0.178000    4.553000   11.733000     -0.27      12.0110
    10    6   HA3       -1.040000    4.717000   11.028000      0.09       1.0080
    11    6   HA3       -0.301000    5.144000   12.587000      0.09       1.0080
    12    6   HA3       -0.252000    3.382000   11.962000      0.09       1.0080
    13    1   C          1.092000    4.828000   10.968000      0.51      12.0110
    14    2   O          2.086000    5.261000   11.545000     -0.51      15.9990
    15    3   NH1        1.054000    4.552000    9.718000     -0.47      14.0070
    16    4   H          0.261000    4.110000    9.277000      0.31       1.0080
    17    8   _LNK       2.156000    4.817000    8.805000      0.07      12.0110
    18    9   HB1        2.981000    4.456000    9.342000      0.09       1.0080
    19   10   _QM_       2.115000    4.056000    7.441000      0.00      12.0110
    20   11   _QM_       1.446000    4.597000    6.683000      0.00       1.0080
    21   11   _QM_       3.156000    4.060000    7.019000      0.00       1.0080
    22   12   _QM_       1.737000    2.558000    7.606000      0.00      12.0110
    23   11   _QM_       0.688000    2.488000    7.714000      0.00       1.0080
    24   11   _QM_       1.946000    2.051000    6.592000      0.00       1.0080
    25   13   _QM_       2.620000    1.876000    8.639000      0.00      12.0110
    26   14   _QM_       3.871000    1.825000    8.605000      0.00      15.9990
    27   14   _QM_       1.972000    1.393000    9.670000      0.00      15.9990
    28   15   _QM_       3.276000    1.229000   11.796000      0.00      15.9994
    29   16   _QM_       2.572000    1.406000   10.469000      0.00       1.0080
    30   16   _QM_       2.615000    1.074000   12.541000      0.00       1.0080
    31   16   _QM_       3.737000    2.149000   11.943000      0.00       1.0080
    32   17   OT         9.581000   -5.349000    5.451000     -0.82      15.9994
    33   18   HT        10.553000   -5.081000    5.289000      0.41       1.0080
    34   18   HT         9.158000   -4.703000    6.154000      0.41       1.0080
    35   17   OT        13.424000   13.903000    6.153000     -0.82      15.9994
    36   18   HT        13.828000   14.117000    5.213000      0.41       1.0080
    37   18   HT        12.343000   13.922000    6.203000      0.41       1.0080
    38   17   OT         1.237000    2.926000   16.051000     -0.82      15.9994
    39   18   HT         1.959000    3.644000   15.936000      0.41       1.0080
    40   18   HT         1.671000    2.257000   16.665000      0.41       1.0080
    41   17   OT        14.284000    8.978000   16.841000     -0.82      15.9994
    42   18   HT        13.753000    9.187000   15.976000      0.41       1.0080
    43   18   HT        14.707000    9.726000   17.416000      0.41       1.0080
    44   17   OT        -6.649000    7.603000    1.308000     -0.82      15.9994
    45   18   HT        -6.005000    6.916000    1.781000      0.41       1.0080
    46   18   HT        -7.146000    8.161000    2.047000      0.41       1.0080
    47   17   OT        -1.753000   -6.663000   -3.414000     -0.82      15.9994
    48   18   HT        -2.024000   -6.677000   -2.430000      0.41       1.0080
    49   18   HT        -2.282000   -7.497000   -3.763000      0.41       1.0080
    50   17   OT         0.198000    6.625000    5.377000     -0.82      15.9994
    51   18   HT         0.150000    7.529000    5.923000      0.41       1.0080
    52   18   HT         1.124000    6.698000    4.924000      0.41       1.0080
    53   19   _QM_       3.043000   -2.780000    8.370000      0.00      15.9994
    54   20   _QM_       3.091000   -3.690000    7.889000      0.00       1.0080
    55   20   _QM_       3.606000   -2.142000    7.787000      0.00       1.0080
    56   17   OT        -3.735000   12.745000   12.146000     -0.82      15.9994
    57   18   HT        -2.937000   12.474000   11.527000      0.41       1.0080
    58   18   HT        -3.795000   12.166000   12.980000      0.41       1.0080
    59   17   OT        -5.683000   12.734000    8.362000     -0.82      15.9994
    60   18   HT        -5.353000   12.833000    7.391000      0.41       1.0080
    61   18   HT        -6.630000   13.144000    8.429000      0.41       1.0080
    62   17   OT        -6.746000    6.599000   12.268000     -0.82      15.9994
    63   18   HT        -5.957000    6.538000   12.945000      0.41       1.0080
    64   18   HT        -7.472000    7.044000   12.893000      0.41       1.0080
    65   17   OT        14.510000    7.389000    0.590000     -0.82      15.9994
    66   18   HT        15.517000    7.366000    0.522000      0.41       1.0080
    67   18   HT        14.284000    8.269000    1.025000      0.41       1.0080
    68   17   OT        -3.718000   -6.812000   -0.467000     -0.82      15.9994
    69   18   HT        -3.961000   -6.255000    0.359000      0.41       1.0080
    70   18   HT        -3.075000   -7.611000   -0.269000      0.41       1.0080
    71   17   OT         5.425000    5.267000    6.734000     -0.82      15.9994
    72   18   HT         5.158000    4.440000    6.305000      0.41       1.0080
    73   18   HT         5.800000    5.122000    7.677000      0.41       1.0080
    74   17   OT        10.794000    6.129000   -0.776000     -0.82      15.9994
    75   18   HT        11.716000    6.325000   -1.270000      0.41       1.0080
    76   18   HT        10.876000    5.178000   -0.374000      0.41       1.0080
    77   17   OT         1.980000   11.923000   16.978000     -0.82      15.9994
    78   18   HT         1.890000   12.649000   16.238000      0.41       1.0080
    79   18   HT         1.244000   11.206000   16.890000      0.41       1.0080
    80   17   OT         4.282000   -8.021000    3.745000     -0.82      15.9994
    81   18   HT         4.303000   -7.094000    3.296000      0.41       1.0080
    82   18   HT         4.599000   -8.754000    3.124000      0.41       1.0080
    83   19   _QM_       8.670000    2.847000   10.588000      0.00      15.9994
    84   20   _QM_       9.621000    2.381000   10.666000      0.00       1.0080
    85   20   _QM_       7.928000    2.188000   10.731000      0.00       1.0080
    86   17   OT        -0.980000   12.954000   -0.144000     -0.82      15.9994
    87   18   HT        -0.298000   12.754000    0.623000      0.41       1.0080
    88   18   HT        -1.934000   13.094000    0.209000      0.41       1.0080
    89   17   OT         0.806000  -10.129000   15.293000     -0.82      15.9994
    90   18   HT         0.305000   -9.808000   16.142000      0.41       1.0080
    91   18   HT         0.527000  -11.076000   14.909000      0.41       1.0080
    92   17   OT         0.321000   12.493000    7.862000     -0.82      15.9994
    93   18   HT        -0.339000   11.735000    7.598000      0.41       1.0080
    94   18   HT        -0.196000   13.368000    8.018000      0.41       1.0080
    95   17   OT        13.498000   -1.666000   12.049000     -0.82      15.9994
    96   18   HT        12.619000   -2.125000   12.400000      0.41       1.0080
    97   18   HT        13.509000   -1.742000   11.009000      0.41       1.0080
    98   17   OT        13.707000    2.626000    6.438000     -0.82      15.9994
    99   18   HT        13.215000    2.268000    7.214000      0.41       1.0080
   100   18   HT        14.465000    1.913000    6.321000      0.41       1.0080
   101   17   OT         8.312000    4.976000    1.011000     -0.82      15.9994
   102   18   HT         8.588000    5.697000    0.381000      0.41       1.0080
   103   18   HT         8.832000    5.139000    1.878000      0.41       1.0080
   104   17   OT        -4.583000   -3.459000   14.990000     -0.82      15.9994
   105   18   HT        -3.595000   -3.281000   15.159000      0.41       1.0080
   106   18   HT        -4.762000   -3.775000   14.042000      0.41       1.0080
   107   17   OT         0.707000   -6.302000    3.663000     -0.82      15.9994
   108   18   HT        -0.030000   -5.869000    3.051000      0.41       1.0080
   109   18   HT         1.693000   -6.130000    3.366000      0.41       1.0080
   110   17   OT         4.932000    6.407000   14.871000     -0.82      15.9994
   111   18   HT         5.194000    7.128000   15.523000      0.41       1.0080
   112   18   HT         4.727000    6.770000   13.902000      0.41       1.0080
   113   19   _QM_       0.794000   -1.241000    8.280000      0.00      15.9994
   114   20   _QM_       0.313000   -2.118000    8.103000      0.00       1.0080
   115   20   _QM_       1.833000   -1.401000    8.368000      0.00       1.0080
   116   17   OT        -4.734000    1.672000   -0.175000     -0.82      15.9994
   117   18   HT        -5.077000    1.037000   -0.879000      0.41       1.0080
   118   18   HT        -5.041000    2.648000   -0.377000      0.41       1.0080
   119   17   OT         0.404000   -1.999000   11.821000     -0.82      15.9994
   120   18   HT         0.976000   -1.898000   10.997000      0.41       1.0080
   121   18   HT        -0.503000   -2.354000   11.450000      0.41       1.0080
   122   17   OT        11.096000    2.779000   20.351000     -0.82      15.9994
   123   18   HT        11.310000    3.649000   19.929000      0.41       1.0080
   124   18   HT        11.889000    2.578000   20.942000      0.41       1.0080
   125   17   OT        -2.593000   -9.243000   20.387000     -0.82      15.9994
   126   18   HT        -1.681000   -9.593000   20.139000      0.41       1.0080
   127   18   HT        -3.275000   -9.509000   19.697000      0.41       1.0080
   128   17   OT        11.198000   -1.566000   14.512000     -0.82      15.9994
   129   18   HT        11.344000   -2.503000   14.025000      0.41       1.0080
   130   18   HT        12.041000   -1.389000   15.051000      0.41       1.0080
   131   17   OT        11.991000   -1.633000   -0.771000     -0.82      15.9994
   132   18   HT        11.127000   -1.077000   -0.688000      0.41       1.0080
   133   18   HT        11.668000   -2.511000   -0.409000      0.41       1.0080
   134   17   OT         3.008000    1.149000   -0.628000     -0.82      15.9994
   135   18   HT         2.459000    1.823000   -0.198000      0.41       1.0080
   136   18   HT         3.885000    1.006000   -0.126000      0.41       1.0080
   137   17   OT        13.238000    0.379000   19.192000     -0.82      15.9994
   138   18   HT        13.534000    1.143000   18.566000      0.41       1.0080
   139   18   HT        12.207000    0.180000   19.045000      0.41       1.0080
   140   17   OT         5.805000   10.264000   10.457000     -0.82      15.9994
   141   18   HT         5.971000   11.092000    9.855000      0.41       1.0080
   142   18   HT         5.320000   10.509000   11.322000      0.41       1.0080
   143   17   OT         5.714000    4.473000    0.657000     -0.82      15.9994
   144   18   HT         6.718000    4.459000    1.023000      0.41       1.0080
   145   18   HT         5.674000    5.263000   -0.032000      0.41       1.0080
   146   17   OT         1.360000   -5.877000    6.415000     -0.82      15.9994
   147   18   HT         2.361000   -5.771000    6.656000      0.41       1.0080
   148   18   HT         1.391000   -6.019000    5.401000      0.41       1.0080
   149   17   OT        -5.083000    8.217000    8.688000     -0.82      15.9994
   150   18   HT        -4.161000    7.912000    9.013000      0.41       1.0080
   151   18   HT        -5.267000    8.096000    7.688000      0.41       1.0080
   152   17   OT        13.279000    5.833000   -1.343000     -0.82      15.9994
   153   18   HT        13.915000    6.330000   -0.696000      0.41       1.0080
   154   18   HT        13.724000    5.333000   -2.163000      0.41       1.0080
   155   17   OT         6.483000   -5.917000   -2.378000     -0.82      15.9994
   156   18   HT         6.178000   -6.608000   -1.665000      0.41       1.0080
   157   18   HT         7.479000   -5.844000   -2.447000      0.41       1.0080
   158   17   OT        13.017000    9.318000   14.533000     -0.82      15.9994
   159   18   HT        12.203000    8.658000   14.468000      0.41       1.0080
   160   18   HT        12.562000   10.190000   14.359000      0.41       1.0080
   161   17   OT        -1.839000   -9.701000   14.517000     -0.82      15.9994
   162   18   HT        -0.833000   -9.636000   14.738000      0.41       1.0080
   163   18   HT        -2.047000   -9.945000   13.574000      0.41       1.0080
   164   17   OT        12.598000   11.981000   14.307000     -0.82      15.9994
   165   18   HT        13.047000   12.046000   13.355000      0.41       1.0080
   166   18   HT        12.181000   12.920000   14.397000      0.41       1.0080
   167   17   OT        -0.714000   -8.359000    6.663000     -0.82      15.9994
   168   18   HT         0.114000   -8.704000    6.079000      0.41       1.0080
   169   18   HT        -0.729000   -7.324000    6.581000      0.41       1.0080
   170   17   OT        -1.601000    9.896000    0.205000     -0.82      15.9994
   171   18   HT        -2.227000    9.118000    0.118000      0.41       1.0080
   172   18   HT        -1.095000    9.967000   -0.648000      0.41       1.0080
   173   17   OT        -0.559000    8.712000    3.293000     -0.82      15.9994
   174   18   HT         0.476000    8.538000    3.402000      0.41       1.0080
   175   18   HT        -0.683000    9.717000    3.343000      0.41       1.0080
   176   17   OT         8.691000   -1.050000    5.737000     -0.82      15.9994
   177   18   HT         9.297000   -0.242000    5.634000      0.41       1.0080
   178   18   HT         8.797000   -1.627000    4.865000      0.41       1.0080
   179   17   OT         9.288000   -0.674000   10.694000     -0.82      15.9994
   180   18   HT        10.019000    0.127000   10.711000      0.41       1.0080
   181   18   HT         8.997000   -1.086000   11.603000      0.41       1.0080
   182   17   OT        -0.910000   10.813000   20.282000     -0.82      15.9994
   183   18   HT        -0.444000   10.051000   20.793000      0.41       1.0080
   184   18   HT        -1.837000   10.940000   20.704000      0.41       1.0080
   185   17   OT        -5.830000    4.827000   15.860000     -0.82      15.9994
   186   18   HT        -5.225000    5.467000   15.335000      0.41       1.0080
   187   18   HT        -5.725000    3.832000   15.606000      0.41       1.0080
   188   17   OT        -4.109000    2.304000   -3.180000     -0.82      15.9994
   189   18   HT        -3.200000    2.225000   -3.657000      0.41       1.0080
   190   18   HT        -4.811000    2.926000   -3.612000      0.41       1.0080
   191   17   OT         7.411000   -4.462000   19.382000     -0.82      15.9994
   192   18   HT         8.378000   -4.754000   19.548000      0.41       1.0080
   193   18   HT         6.926000   -5.268000   19.054000      0.41       1.0080
   194   17   OT        11.585000    7.201000   14.125000     -0.82      15.9994
   195   18   HT        12.021000    6.456000   13.524000      0.41       1.0080
   196   18   HT        11.139000    6.698000   14.903000      0.41       1.0080
   197   17   OT        -8.972000   10.296000    0.383000     -0.82      15.9994
   198   18   HT        -9.827000   10.213000    0.918000      0.41       1.0080
   199   18   HT        -8.188000   10.546000    1.055000      0.41       1.0080
   200   17   OT        13.465000    7.372000    4.915000     -0.82      15.9994
   201   18   HT        13.434000    7.206000    5.961000      0.41       1.0080
   202   18   HT        12.483000    7.517000    4.639000      0.41       1.0080
   203   17   OT         9.846000    6.824000    9.353000     -0.82      15.9994
   204   18   HT         9.095000    7.174000    8.729000      0.41       1.0080
   205   18   HT         9.862000    5.821000    9.119000      0.41       1.0080
   206   17   OT         4.667000   -7.886000   -1.572000     -0.82      15.9994
   207   18   HT         4.796000   -8.657000   -0.883000      0.41       1.0080
   208   18   HT         4.836000   -8.229000   -2.541000      0.41       1.0080
   209   17   OT         9.012000    9.000000   14.233000     -0.82      15.9994
   210   18   HT         8.740000    9.938000   14.106000      0.41       1.0080
   211   18   HT         9.362000    8.595000   13.373000      0.41       1.0080
   212   17   OT        -8.019000    2.479000   13.806000     -0.82      15.9994
   213   18   HT        -8.144000    1.588000   13.382000      0.41       1.0080
   214   18   HT        -8.422000    3.272000   13.323000      0.41       1.0080
   215   17   OT         0.778000   -6.413000   14.251000     -0.82      15.9994
   216   18   HT         0.782000   -7.035000   13.449000      0.41       1.0080
   217   18   HT         1.519000   -6.830000   14.834000      0.41       1.0080
   218   17   OT         6.411000    6.412000   18.814000     -0.82      15.9994
   219   18   HT         5.867000    7.187000   18.483000      0.41       1.0080
   220   18   HT         6.751000    5.920000   17.985000      0.41       1.0080
   221   17   OT        -4.940000   -8.937000   12.225000     -0.82      15.9994
   222   18   HT        -4.400000   -9.805000   11.975000      0.41       1.0080
   223   18   HT        -4.490000   -8.336000   11.541000      0.41       1.0080
   224   17   OT        -1.730000   -5.590000   17.526000     -0.82      15.9994
   225   18   HT        -2.651000   -5.192000   17.668000      0.41       1.0080
   226   18   HT        -2.038000   -6.508000   17.169000      0.41       1.0080
   227   17   OT        -5.814000   12.648000    5.127000     -0.82      15.9994
   228   18   HT        -6.051000   11.712000    4.715000      0.41       1.0080
   229   18   HT        -5.383000   13.252000    4.421000      0.41       1.0080
   230   17   OT         0.963000   -5.930000   20.521000     -0.82      15.9994
   231   18   HT        -0.015000   -6.173000   20.582000      0.41       1.0080
   232   18   HT         1.192000   -5.134000   21.167000      0.41       1.0080
   233   17   OT         1.289000    2.849000    4.446000     -0.82      15.9994
   234   18   HT         1.104000    3.701000    3.947000      0.41       1.0080
   235   18   HT         1.498000    2.163000    3.686000      0.41       1.0080
   236   17   OT        11.177000    8.376000    3.962000     -0.82      15.9994
   237   18   HT        10.805000    8.396000    4.923000      0.41       1.0080
   238   18   HT        10.443000    8.520000    3.215000      0.41       1.0080
   239   17   OT        -3.158000    3.158000   13.346000     -0.82      15.9994
   240   18   HT        -2.596000    2.805000   14.137000      0.41       1.0080
   241   18   HT        -2.726000    2.610000   12.615000      0.41       1.0080
   242   17   OT        11.031000    0.117000    2.771000     -0.82      15.9994
   243   18   HT        10.077000    0.405000    2.666000      0.41       1.0080
   244   18   HT        11.733000    0.855000    2.929000      0.41       1.0080
   245   17   OT         3.496000    9.623000   15.593000     -0.82      15.9994
   246   18   HT         2.735000    9.206000   15.105000      0.41       1.0080
   247   18   HT         3.059000   10.395000   16.167000      0.41       1.0080
   248   17   OT        -1.490000   -9.566000    8.844000     -0.82      15.9994
   249   18   HT        -1.161000   -9.102000    9.729000      0.41       1.0080
   250   18   HT        -1.036000   -9.022000    8.027000      0.41       1.0080
   251   17   OT         7.684000   -9.428000    9.821000     -0.82      15.9994
   252   18   HT         7.914000   -9.786000    8.870000      0.41       1.0080
   253   18   HT         8.435000   -8.713000    9.923000      0.41       1.0080
   254   17   OT         0.465000    9.457000   -2.079000     -0.82      15.9994
   255   18   HT         0.929000    8.573000   -2.172000      0.41       1.0080
   256   18   HT         1.203000   10.192000   -1.919000      0.41       1.0080
   257   17   OT        13.663000    1.610000   14.047000     -0.82      15.9994
   258   18   HT        14.300000    0.861000   13.890000      0.41       1.0080
   259   18   HT        14.202000    2.448000   14.055000      0.41       1.0080
   260   17   OT        -8.486000    2.664000   20.276000     -0.82      15.9994
   261   18   HT        -8.869000    1.791000   20.576000      0.41       1.0080
   262   18   HT        -7.482000    2.720000   20.339000      0.41       1.0080
   263   17   OT        -2.042000   12.409000   10.127000     -0.82      15.9994
   264   18   HT        -2.639000   11.760000    9.575000      0.41       1.0080
   265   18   HT        -1.895000   13.280000    9.605000      0.41       1.0080
   266   17   OT        11.830000   11.384000   17.374000     -0.82      15.9994
   267   18   HT        12.306000   11.329000   16.464000      0.41       1.0080
   268   18   HT        10.779000   11.535000   17.224000      0.41       1.0080
   269   17   OT        12.203000   -3.986000   10.782000     -0.82      15.9994
   270   18   HT        11.357000   -4.423000   10.333000      0.41       1.0080
   271   18   HT        12.828000   -3.646000   10.067000      0.41       1.0080
   272   17   OT        -8.584000   -7.216000    4.787000     -0.82      15.9994
   273   18   HT        -8.004000   -7.936000    5.207000      0.41       1.0080
   274   18   HT        -8.041000   -6.329000    4.877000      0.41       1.0080
   275   17   OT        -1.866000   -2.666000   14.325000     -0.82      15.9994
   276   18   HT        -1.456000   -2.201000   15.193000      0.41       1.0080
   277   18   HT        -1.912000   -1.878000   13.660000      0.41       1.0080
   278   17   OT         4.913000    8.372000   17.429000     -0.82      15.9994
   279   18   HT         4.385000    8.726000   16.549000      0.41       1.0080
   280   18   HT         4.231000    8.365000   18.210000      0.41       1.0080
   281   17   OT         9.153000   -7.572000   -3.343000     -0.82      15.9994
   282   18   HT         9.425000   -7.961000   -2.449000      0.41       1.0080
   283   18   HT         9.500000   -8.278000   -4.025000      0.41       1.0080
   284   17   OT         5.213000   13.620000   18.826000     -0.82      15.9994
   285   18   HT         5.044000   12.637000   18.931000      0.41       1.0080
   286   18   HT         4.386000   13.932000   18.307000      0.41       1.0080
   287   17   OT         7.893000   -7.676000    7.033000     -0.82      15.9994
   288   18   HT         7.900000   -6.685000    6.705000      0.41       1.0080
   289   18   HT         7.526000   -8.287000    6.306000      0.41       1.0080
   290   17   OT        -8.531000    8.950000    7.692000     -0.82      15.9994
   291   18   HT        -8.915000    9.891000    7.949000      0.41       1.0080
   292   18   HT        -7.975000    8.688000    8.533000      0.41       1.0080
   293   17   OT        -1.038000    6.276000   -1.396000     -0.82      15.9994
   294   18   HT        -0.304000    6.738000   -0.835000      0.41       1.0080
   295   18   HT        -1.859000    6.772000   -1.061000      0.41       1.0080
   296   17   OT        -0.199000    0.180000    6.078000     -0.82      15.9994
   297   18   HT         0.452000    0.937000    5.904000      0.41       1.0080
   298   18   HT        -0.018000   -0.342000    6.947000      0.41       1.0080
   299   17   OT         0.728000    6.875000   17.346000     -0.82      15.9994
   300   18   HT         1.239000    6.131000   16.969000      0.41       1.0080
   301   18   HT        -0.044000    6.500000   17.977000      0.41       1.0080
   302   17   OT        12.136000    5.182000   15.941000     -0.82      15.9994
   303   18   HT        13.086000    5.506000   16.104000      0.41       1.0080
   304   18   HT        12.025000    4.554000   16.732000      0.41       1.0080
   305   17   OT        14.635000   -4.560000   -0.038000     -0.82      15.9994
   306   18   HT        15.360000   -4.409000   -0.782000      0.41       1.0080
   307   18   HT        14.973000   -4.220000    0.877000      0.41       1.0080
   308   17   OT        -2.067000    2.273000    3.406000     -0.82      15.9994
   309   18   HT        -3.071000    2.422000    3.759000      0.41       1.0080
   310   18   HT        -1.799000    1.290000    3.329000      0.41       1.0080
   311   17   OT         0.935000   -4.170000   -1.724000     -0.82      15.9994
   312   18   HT         1.723000   -3.521000   -1.609000      0.41       1.0080
   313   18   HT         0.845000   -4.836000   -0.927000      0.41       1.0080
   314   17   OT        14.205000    7.624000   10.753000     -0.82      15.9994
   315   18   HT        14.971000    7.624000   10.061000      0.41       1.0080
   316   18   HT        14.447000    7.845000   11.719000      0.41       1.0080
   317   17   OT         9.164000    1.776000   -2.464000     -0.82      15.9994
   318   18   HT         8.445000    1.494000   -3.169000      0.41       1.0080
   319   18   HT         9.881000    2.100000   -3.113000      0.41       1.0080
   320   17   OT         3.815000    9.837000    2.884000     -0.82      15.9994
   321   18   HT         3.223000    9.727000    3.701000      0.41       1.0080
   322   18   HT         3.243000    9.885000    2.014000      0.41       1.0080
   323   17   OT        13.476000   11.754000   19.877000     -0.82      15.9994
   324   18   HT        12.803000   11.028000   19.542000      0.41       1.0080
   325   18   HT        14.302000   11.797000   19.234000      0.41       1.0080
   326   17   OT        12.438000    1.996000   16.634000     -0.82      15.9994
   327   18   HT        13.383000    2.225000   17.026000      0.41       1.0080
   328   18   HT        12.463000    1.802000   15.622000      0.41       1.0080
   329   17   OT        -6.697000    6.686000   17.959000     -0.82      15.9994
   330   18   HT        -7.024000    7.634000   17.735000      0.41       1.0080
   331   18   HT        -6.205000    6.187000   17.196000      0.41       1.0080
   332   17   OT        -4.515000   -7.922000    3.506000     -0.82      15.9994
   333   18   HT        -4.334000   -7.345000    4.353000      0.41       1.0080
   334   18   HT        -4.946000   -7.305000    2.811000      0.41       1.0080
   335   17   OT         2.951000    9.981000   11.581000     -0.82      15.9994
   336   18   HT         2.766000   10.735000   10.958000      0.41       1.0080
   337   18   HT         2.403000   10.159000   12.429000      0.41       1.0080
   338   17   OT        -1.661000   11.029000   17.664000     -0.82      15.9994
   339   18   HT        -1.448000   11.256000   18.631000      0.41       1.0080
   340   18   HT        -2.168000   11.857000   17.303000      0.41       1.0080
   341   17   OT         3.294000   -5.836000    2.514000     -0.82      15.9994
   342   18   HT         3.559000   -5.974000    1.497000      0.41       1.0080
   343   18   HT         3.646000   -4.908000    2.748000      0.41       1.0080
   344   17   OT        13.802000   12.446000   12.024000     -0.82      15.9994
   345   18   HT        13.068000   12.343000   11.341000      0.41       1.0080
   346   18   HT        14.619000   11.883000   11.732000      0.41       1.0080
   347   17   OT        10.145000   -5.973000   -1.055000     -0.82      15.9994
   348   18   HT        10.662000   -6.874000   -1.122000      0.41       1.0080
   349   18   HT        10.396000   -5.523000   -2.005000      0.41       1.0080
   350   17   OT         3.485000   11.397000   19.565000     -0.82      15.9994
   351   18   HT         3.512000   10.368000   19.570000      0.41       1.0080
   352   18   HT         2.848000   11.697000   18.820000      0.41       1.0080
   353   17   OT         9.592000   -0.159000   -0.614000     -0.82      15.9994
   354   18   HT         9.292000    0.478000   -1.335000      0.41       1.0080
   355   18   HT         9.279000    0.097000    0.297000      0.41       1.0080
   356   17   OT        -7.731000   -6.654000   19.046000     -0.82      15.9994
   357   18   HT        -7.035000   -7.134000   19.625000      0.41       1.0080
   358   18   HT        -7.807000   -5.620000   19.149000      0.41       1.0080
   359   17   OT        -0.968000   -1.103000   19.326000     -0.82      15.9994
   360   18   HT        -0.784000   -1.207000   18.321000      0.41       1.0080
   361   18   HT        -1.104000   -2.094000   19.626000      0.41       1.0080
   362   17   OT         2.463000    4.353000    0.073000     -0.82      15.9994
   363   18   HT         3.092000    4.684000   -0.668000      0.41       1.0080
   364   18   HT         1.954000    3.674000   -0.450000      0.41       1.0080
   365   17   OT        -1.653000   10.482000    6.613000     -0.82      15.9994
   366   18   HT        -2.485000   10.438000    7.133000      0.41       1.0080
   367   18   HT        -1.760000   10.986000    5.713000      0.41       1.0080
   368   17   OT        11.500000   11.465000    4.155000     -0.82      15.9994
   369   18   HT        10.508000   11.166000    4.094000      0.41       1.0080
   370   18   HT        11.610000   11.989000    5.030000      0.41       1.0080
   371   17   OT         0.436000    8.954000    6.648000     -0.82      15.9994
   372   18   HT         0.329000    8.726000    7.641000      0.41       1.0080
   373   18   HT        -0.445000    9.516000    6.448000      0.41       1.0080
   374   17   OT         1.879000   11.801000    9.771000     -0.82      15.9994
   375   18   HT         1.197000   11.953000    9.030000      0.41       1.0080
   376   18   HT         1.772000   12.636000   10.331000      0.41       1.0080
   377   17   OT         4.209000    2.592000   14.861000     -0.82      15.9994
   378   18   HT         4.046000    3.329000   15.560000      0.41       1.0080
   379   18   HT         3.766000    1.698000   15.187000      0.41       1.0080
   380   17   OT         9.490000    5.223000    5.768000     -0.82      15.9994
   381   18   HT         9.099000    4.281000    5.930000      0.41       1.0080
   382   18   HT        10.470000    5.005000    5.579000      0.41       1.0080
   383   17   OT         9.081000   13.311000    1.618000     -0.82      15.9994
   384   18   HT         8.964000   13.748000    0.698000      0.41       1.0080
   385   18   HT        10.105000   13.336000    1.756000      0.41       1.0080
   386   17   OT         9.097000   -4.243000   11.966000     -0.82      15.9994
   387   18   HT         8.129000   -4.627000   12.124000      0.41       1.0080
   388   18   HT         9.033000   -3.241000   12.276000      0.41       1.0080
   389   17   OT        13.248000   -0.112000    4.890000     -0.82      15.9994
   390   18   HT        13.799000   -0.609000    4.219000      0.41       1.0080
   391   18   HT        13.112000    0.776000    4.367000      0.41       1.0080
   392   17   OT        -2.842000    8.679000   17.758000     -0.82      15.9994
   393   18   HT        -3.654000    8.503000   17.181000      0.41       1.0080
   394   18   HT        -2.477000    9.622000   17.735000      0.41       1.0080
   395   17   OT         3.905000   -5.861000   -0.171000     -0.82      15.9994
   396   18   HT         4.063000   -6.783000   -0.627000      0.41       1.0080
   397   18   HT         3.031000   -5.511000   -0.560000      0.41       1.0080
   398   17   OT        12.469000   -7.650000   18.814000     -0.82      15.9994
   399   18   HT        11.524000   -8.076000   18.791000      0.41       1.0080
   400   18   HT        13.156000   -8.392000   18.636000      0.41       1.0080
   401   17   OT        11.979000    4.205000    5.019000     -0.82      15.9994
   402   18   HT        12.363000    4.284000    4.060000      0.41       1.0080
   403   18   HT        12.591000    3.551000    5.583000      0.41       1.0080
   404   17   OT         9.871000    7.585000   11.894000     -0.82      15.9994
   405   18   HT        10.494000    7.178000   12.597000      0.41       1.0080
   406   18   HT        10.063000    7.248000   10.954000      0.41       1.0080
   407   17   OT        -9.140000    4.510000   12.537000     -0.82      15.9994
   408   18   HT        14.704000    3.924000   11.809000      0.41       1.0080
   409   18   HT        -8.277000    4.915000   12.119000      0.41       1.0080
   410   17   OT        -6.612000   -9.625000    0.138000     -0.82      15.9994
   411   18   HT        -7.134000  -10.439000   -0.214000      0.41       1.0080
   412   18   HT        -6.162000   -9.203000   -0.688000      0.41       1.0080
   413   17   OT        10.730000   -0.366000   18.895000     -0.82      15.9994
   414   18   HT        10.767000   -1.178000   19.500000      0.41       1.0080
   415   18   HT        10.127000   -0.642000   18.095000      0.41       1.0080
   416   17   OT         1.437000    8.693000   13.828000     -0.82      15.9994
   417   18   HT         0.491000    8.452000   14.081000      0.41       1.0080
   418   18   HT         1.906000    7.882000   13.475000      0.41       1.0080
   419   17   OT        13.562000   -5.739000    7.997000     -0.82      15.9994
   420   18   HT        12.874000   -6.073000    8.680000      0.41       1.0080
   421   18   HT        13.566000   -6.444000    7.240000      0.41       1.0080
   422   17   OT        -5.538000    2.158000   15.467000     -0.82      15.9994
   423   18   HT        -4.820000    1.466000   15.259000      0.41       1.0080
   424   18   HT        -6.207000    2.287000   14.661000      0.41       1.0080
   425   19   _QM_      -2.044000    2.284000    6.251000      0.00      15.9994
   426   20   _QM_      -1.948000    2.317000    5.219000      0.00       1.0080
   427   20   _QM_      -1.618000    1.422000    6.626000      0.00       1.0080
   428   17   OT        -2.297000    5.430000    5.340000     -0.82      15.9994
   429   18   HT        -1.368000    5.764000    5.265000      0.41       1.0080
   430   18   HT        -2.371000    4.557000    5.888000      0.41       1.0080
   431   17   OT        -8.055000   -3.799000   19.434000     -0.82      15.9994
   432   18   HT        -8.843000   -3.516000   18.813000      0.41       1.0080
   433   18   HT        -7.295000   -3.147000   19.194000      0.41       1.0080
   434   17   OT        -8.259000   -4.373000    7.636000     -0.82      15.9994
   435   18   HT        -9.247000   -4.640000    7.531000      0.41       1.0080
   436   18   HT        -7.793000   -4.983000    8.332000      0.41       1.0080
   437   17   OT         1.748000    1.222000    2.418000     -0.82      15.9994
   438   18   HT         1.829000    0.230000    2.140000      0.41       1.0080
   439   18   HT         1.371000    1.617000    1.543000      0.41       1.0080
   440   17   OT         4.201000   -3.028000    2.570000     -0.82      15.9994
   441   18   HT         4.975000   -2.914000    1.885000      0.41       1.0080
   442   18   HT         4.665000   -2.938000    3.514000      0.41       1.0080
   443   17   OT        -1.523000   -6.141000    9.085000     -0.82      15.9994
   444   18   HT        -0.784000   -5.558000    9.450000      0.41       1.0080
   445   18   HT        -1.179000   -7.100000    9.106000      0.41       1.0080
   446   17   OT         2.603000    9.862000    0.508000     -0.82      15.9994
   447   18   HT         2.427000   10.589000   -0.248000      0.41       1.0080
   448   18   HT         1.961000    9.095000    0.223000      0.41       1.0080
   449   17   OT         6.870000   13.221000   -2.997000     -0.82      15.9994
   450   18   HT         6.430000   13.746000   -3.772000      0.41       1.0080
   451   18   HT         6.826000   12.261000   -3.378000      0.41       1.0080
   452   17   OT        -5.512000   -5.823000    1.778000     -0.82      15.9994
   453   18   HT        -6.437000   -6.271000    1.924000      0.41       1.0080
   454   18   HT        -5.575000   -5.063000    1.090000      0.41       1.0080
   455   17   OT        -8.259000    5.375000   15.173000     -0.82      15.9994
   456   18   HT        -7.403000    4.915000   15.531000      0.41       1.0080
   457   18   HT        -8.643000    4.788000   14.453000      0.41       1.0080
   458   17   OT        12.776000    2.750000    0.626000     -0.82      15.9994
   459   18   HT        13.430000    2.934000   -0.164000      0.41       1.0080
   460   18   HT        11.875000    3.156000    0.337000      0.41       1.0080
   461   17   OT         7.033000    7.970000    0.665000     -0.82      15.9994
   462   18   HT         6.582000    7.547000   -0.181000      0.41       1.0080
   463   18   HT         6.258000    8.422000    1.162000      0.41       1.0080
   464   17   OT        11.032000    1.332000   11.116000     -0.82      15.9994
   465   18   HT        11.839000    1.378000   10.532000      0.41       1.0080
   466   18   HT        11.314000    1.207000   12.065000      0.41       1.0080
   467   17   OT        -1.957000   -1.909000   10.287000     -0.82      15.9994
   468   18   HT        -1.715000   -1.276000    9.541000      0.41       1.0080
   469   18   HT        -2.693000   -1.479000   10.877000      0.41       1.0080
   470   17   OT         9.691000   10.105000   10.580000     -0.82      15.9994
   471   18   HT         9.228000   10.042000    9.698000      0.41       1.0080
   472   18   HT         9.665000    9.164000   10.979000      0.41       1.0080
   473   17   OT        -5.199000    8.204000   -1.983000     -0.82      15.9994
   474   18   HT        -4.874000    7.972000   -2.946000      0.41       1.0080
   475   18   HT        -6.184000    8.479000   -1.914000      0.41       1.0080
   476   17   OT        -7.462000   -1.698000    8.544000     -0.82      15.9994
   477   18   HT        -6.510000   -1.653000    8.093000      0.41       1.0080
   478   18   HT        -8.035000   -2.339000    7.921000      0.41       1.0080
   479   17   OT        -9.473000    2.313000   17.876000     -0.82      15.9994
   480   18   HT        -8.897000    1.584000   17.442000      0.41       1.0080
   481   18   HT        -9.020000    2.684000   18.738000      0.41       1.0080
   482   17   OT        11.347000   -4.050000   13.496000     -0.82      15.9994
   483   18   HT        10.858000   -4.831000   13.895000      0.41       1.0080
   484   18   HT        11.038000   -3.892000   12.530000      0.41       1.0080
   485   17   OT         1.697000   -1.880000   14.244000     -0.82      15.9994
   486   18   HT         1.018000   -1.934000   13.464000      0.41       1.0080
   487   18   HT         2.363000   -2.621000   14.323000      0.41       1.0080
   488   17   OT        10.396000    3.885000   14.300000     -0.82      15.9994
   489   18   HT        11.107000    4.456000   14.728000      0.41       1.0080
   490   18   HT        10.451000    4.102000   13.369000      0.41       1.0080
   491   17   OT        -5.562000   -6.134000    9.144000     -0.82      15.9994
   492   18   HT        -4.976000   -6.900000    9.464000      0.41       1.0080
   493   18   HT        -4.913000   -5.921000    8.405000      0.41       1.0080
   494   17   OT         7.289000    9.857000   17.431000     -0.82      15.9994
   495   18   HT         6.277000    9.687000   17.677000      0.41       1.0080
   496   18   HT         7.883000    9.044000   17.079000      0.41       1.0080
   497   17   OT         9.077000   -8.249000   15.052000     -0.82      15.9994
   498   18   HT         9.598000   -7.420000   15.400000      0.41       1.0080
   499   18   HT         9.262000   -8.257000   14.055000      0.41       1.0080
   500   17   OT        -7.933000    9.329000   -1.976000     -0.82      15.9994
   501   18   HT        -8.197000    9.824000   -1.104000      0.41       1.0080
   502   18   HT        -8.713000    9.006000   -2.506000      0.41       1.0080
   503   19   _QM_      -1.145000    5.317000    8.132000      0.00      15.9994
   504   20   _QM_      -1.442000    5.899000    7.350000      0.00       1.0080
   505   20   _QM_      -0.463000    5.949000    8.539000      0.00       1.0080
   506   17   OT         4.541000   -8.221000   20.032000     -0.82      15.9994
   507   18   HT         5.294000   -7.680000   19.537000      0.41       1.0080
   508   18   HT         4.578000   -9.192000   19.725000      0.41       1.0080
   509   17   OT        -8.671000   -0.133000   12.913000     -0.82      15.9994
   510   18   HT        -7.949000   -0.627000   12.362000      0.41       1.0080
   511   18   HT        -9.451000   -0.803000   12.808000      0.41       1.0080
   512   17   OT        -7.677000   -5.833000   13.036000     -0.82      15.9994
   513   18   HT        -6.699000   -5.678000   12.875000      0.41       1.0080
   514   18   HT        -8.212000   -5.321000   12.308000      0.41       1.0080
   515   17   OT         2.897000   -9.400000   17.753000     -0.82      15.9994
   516   18   HT         2.298000  -10.159000   17.509000      0.41       1.0080
   517   18   HT         2.432000   -8.674000   18.289000      0.41       1.0080
   518   17   OT        -4.172000   11.230000   14.186000     -0.82      15.9994
   519   18   HT        -4.219000   10.273000   14.622000      0.41       1.0080
   520   18   HT        -4.759000   11.894000   14.696000      0.41       1.0080
   521   17   OT         3.886000   -4.623000   -3.309000     -0.82      15.9994
   522   18   HT         4.676000   -5.002000   -2.881000      0.41       1.0080
   523   18   HT         3.239000   -5.409000   -3.541000      0.41       1.0080
   524   17   OT         5.597000   13.707000    2.066000     -0.82      15.9994
   525   18   HT         5.436000   12.991000    2.814000      0.41       1.0080
   526   18   HT         6.417000   14.327000    2.302000      0.41       1.0080
   527   17   OT         6.335000   -7.095000    9.930000     -0.82      15.9994
   528   18   HT         6.394000   -8.135000   10.038000      0.41       1.0080
   529   18   HT         6.791000   -6.635000    9.170000      0.41       1.0080
   530   17   OT         3.257000   -3.073000   -0.976000     -0.82      15.9994
   531   18   HT         3.524000   -3.882000   -0.378000      0.41       1.0080
   532   18   HT         4.190000   -2.721000   -1.290000      0.41       1.0080
   533   17   OT         6.517000   -3.847000    4.346000     -0.82      15.9994
   534   18   HT         7.251000   -3.150000    4.306000      0.41       1.0080
   535   18   HT         6.619000   -4.368000    3.467000      0.41       1.0080
   536   17   OT         2.662000   -8.101000   15.250000     -0.82      15.9994
   537   18   HT         2.001000   -8.929000   15.202000      0.41       1.0080
   538   18   HT         3.113000   -8.086000   16.198000      0.41       1.0080
   539   17   OT        -3.114000   -6.319000   12.245000     -0.82      15.9994
   540   18   HT        -3.290000   -6.630000   13.212000      0.41       1.0080
   541   18   HT        -2.298000   -5.741000   12.194000      0.41       1.0080
   542   17   OT        -8.377000   10.473000   11.396000     -0.82      15.9994
   543   18   HT        -8.065000    9.622000   10.914000      0.41       1.0080
   544   18   HT        -7.660000   11.168000   11.567000      0.41       1.0080
   545   17   OT         5.922000    0.648000    5.107000     -0.82      15.9994
   546   18   HT         6.758000    0.025000    5.003000      0.41       1.0080
   547   18   HT         5.862000    1.223000    5.939000      0.41       1.0080
   548   17   OT        -6.308000   -9.026000   16.701000     -0.82      15.9994
   549   18   HT        -6.673000   -8.067000   16.511000      0.41       1.0080
   550   18   HT        -5.872000   -8.974000   17.669000      0.41       1.0080
   551   17   OT        -4.563000    3.004000    6.686000     -0.82      15.9994
   552   18   HT        -4.731000    3.305000    7.662000      0.41       1.0080
   553   18   HT        -3.691000    2.529000    6.614000      0.41       1.0080
   554   17   OT        12.842000    0.670000    9.194000     -0.82      15.9994
   555   18   HT        12.327000   -0.182000    9.066000      0.41       1.0080
   556   18   HT        13.790000    0.445000    8.907000      0.41       1.0080
   557   17   OT        -2.711000   -3.410000    6.364000     -0.82      15.9994
   558   18   HT        -1.763000   -3.077000    6.661000      0.41       1.0080
   559   18   HT        -2.765000   -3.453000    5.352000      0.41       1.0080
   560   17   OT        14.275000    8.339000   -3.455000     -0.82      15.9994
   561   18   HT        14.094000    7.354000   -3.686000      0.41       1.0080
   562   18   HT        13.598000    8.972000   -3.986000      0.41       1.0080
   563   17   OT         0.158000   -4.007000   16.342000     -0.82      15.9994
   564   18   HT         0.681000   -4.599000   15.713000      0.41       1.0080
   565   18   HT        -0.650000   -4.510000   16.815000      0.41       1.0080
   566   17   OT        13.146000   13.692000   -2.294000     -0.82      15.9994
   567   18   HT        14.012000  -10.201000   -1.885000      0.41       1.0080
   568   18   HT        13.311000   12.954000   -3.003000      0.41       1.0080
   569   17   OT         7.774000   -6.217000   16.372000     -0.82      15.9994
   570   18   HT         8.442000   -5.516000   16.118000      0.41       1.0080
   571   18   HT         8.122000   -6.608000   17.254000      0.41       1.0080
   572   17   OT         9.458000   -8.109000   12.178000     -0.82      15.9994
   573   18   HT         9.369000   -9.084000   11.892000      0.41       1.0080
   574   18   HT        10.321000   -7.815000   11.705000      0.41       1.0080
   575   17   OT         4.588000    3.726000   18.141000     -0.82      15.9994
   576   18   HT         4.245000    3.969000   19.083000      0.41       1.0080
   577   18   HT         5.512000    3.368000   18.184000      0.41       1.0080
   578   17   OT        -4.725000   -2.525000    8.348000     -0.82      15.9994
   579   18   HT        -4.398000   -1.703000    7.756000      0.41       1.0080
   580   18   HT        -3.887000   -3.195000    8.414000      0.41       1.0080
   581   17   OT         9.595000   -0.790000   16.498000     -0.82      15.9994
   582   18   HT        10.252000   -1.017000   15.733000      0.41       1.0080
   583   18   HT         9.746000    0.225000   16.719000      0.41       1.0080
   584   17   OT         4.688000    8.358000   12.775000     -0.82      15.9994
   585   18   HT         5.459000    7.956000   12.222000      0.41       1.0080
   586   18   HT         4.087000    8.638000   12.032000      0.41       1.0080
   587   17   OT        -6.630000   10.696000   19.999000     -0.82      15.9994
   588   18   HT        -7.088000   10.415000   20.887000      0.41       1.0080
   589   18   HT        -5.981000    9.903000   19.784000      0.41       1.0080
   590   17   OT         7.291000    7.969000    9.275000     -0.82      15.9994
   591   18   HT         7.285000    7.279000    9.988000      0.41       1.0080
   592   18   HT         6.836000    8.806000    9.658000      0.41       1.0080
   593   17   OT         9.333000   13.733000   -1.016000     -0.82      15.9994
   594   18   HT         8.623000   13.551000   -1.713000      0.41       1.0080
   595   18   HT         9.939000   12.897000   -1.011000      0.41       1.0080
[...]
    26 OT DIIS     0.15E+00  119.0     0.00002330      -282.7454515692 -1.48E-05

  Trace(PS):                                  134.0000000000
  Electronic density on regular grids:       -133.9999999937        0.0000000063
  Core density on regular grids:              133.9999999951       -0.0000000049
  Total charge density on r-space grids:        0.0000000013
  Total charge density g-space grids:           0.0000000013

  Decoupling Energy:                                               0.0002340886
  Recoupling Energy:                                              -0.0001528508
  Adding QM/MM electrostatic potential to the Kohn-Sham potential.
    27 OT DIIS     0.15E+00  119.0     0.00002056      -282.7454671531 -1.56E-05

  Trace(PS):                                  134.0000000000
  Electronic density on regular grids:       -133.9999999937        0.0000000063
  Core density on regular grids:              133.9999999951       -0.0000000049
  Total charge density on r-space grids:        0.0000000013
  Total charge density g-space grids:           0.0000000013

  Decoupling Energy:                                               0.0002339443
  Recoupling Energy:                                              -0.0001527853
  Adding QM/MM electrostatic potential to the Kohn-Sham potential.
    28 OT DIIS     0.15E+00  119.0     0.00001795      -282.7454795404 -1.24E-05

  Trace(PS):                                  134.0000000000
  Electronic density on regular grids:       -133.9999999937        0.0000000063
  Core density on regular grids:              133.9999999951       -0.0000000049
  Total charge density on r-space grids:        0.0000000013
  Total charge density g-space grids:           0.0000000013

  Decoupling Energy:                                               0.0002338587
  Recoupling Energy:                                              -0.0001527458
  Adding QM/MM electrostatic potential to the Kohn-Sham potential.
    29 OT DIIS     0.15E+00  119.0     0.00001553      -282.7454894678 -9.93E-06

  Trace(PS):                                  134.0000000000
  Electronic density on regular grids:       -133.9999999937        0.0000000063
  Core density on regular grids:              133.9999999951       -0.0000000049
  Total charge density on r-space grids:        0.0000000013
  Total charge density g-space grids:           0.0000000013

  Decoupling Energy:                                               0.0002336964
  Recoupling Energy:                                              -0.0001526829
  Adding QM/MM electrostatic potential to the Kohn-Sham potential.
    30 OT DIIS     0.15E+00  119.0     0.00001348      -282.7454963815 -6.91E-06

  Trace(PS):                                  134.0000000000
  Electronic density on regular grids:       -133.9999999937        0.0000000063
  Core density on regular grids:              133.9999999951       -0.0000000049
  Total charge density on r-space grids:        0.0000000013
  Total charge density g-space grids:           0.0000000013

  Decoupling Energy:                                               0.0002336316
  Recoupling Energy:                                              -0.0001526535
  Adding QM/MM electrostatic potential to the Kohn-Sham potential.
    31 OT DIIS     0.15E+00  119.0     0.00001172      -282.7455013355 -4.95E-06

  Trace(PS):                                  134.0000000000
  Electronic density on regular grids:       -133.9999999937        0.0000000063
  Core density on regular grids:              133.9999999951       -0.0000000049
  Total charge density on r-space grids:        0.0000000013
  Total charge density g-space grids:           0.0000000013

  Decoupling Energy:                                               0.0002335447
  Recoupling Energy:                                              -0.0001526261
  Adding QM/MM electrostatic potential to the Kohn-Sham potential.
    32 OT DIIS     0.15E+00  119.0     0.00001037      -282.7455046369 -3.30E-06

  Trace(PS):                                  134.0000000000
  Electronic density on regular grids:       -133.9999999937        0.0000000063
  Core density on regular grids:              133.9999999951       -0.0000000049
  Total charge density on r-space grids:        0.0000000013
  Total charge density g-space grids:           0.0000000013

  Decoupling Energy:                                               0.0002334300
  Recoupling Energy:                                              -0.0001525743
  Adding QM/MM electrostatic potential to the Kohn-Sham potential.
    33 OT DIIS     0.15E+00  119.0     0.00000909      -282.7455069844 -2.35E-06

  *** SCF run converged in    33 steps ***


  Electronic density on regular grids:       -133.9999999937        0.0000000063
  Core density on regular grids:              133.9999999951       -0.0000000049
  Total charge density on r-space grids:        0.0000000013
  Total charge density g-space grids:           0.0000000013

  Overlap energy of the core charge distribution:               0.00000233135226
  Self energy of the core charge distribution:               -710.98315830526133
  Core Hamiltonian energy:                                    206.26434569396486
  Hartree energy:                                             297.19751003201355
  Exchange-correlation energy:                                -55.91440052749347
  Hartree-Fock Exchange energy:                               -12.73449848095198
  Dispersion energy:                                           -0.03424928754494
  QM/MM Electrostatic energy:                                      -6.5410584404

  Total energy:                                              -282.74550698436497

  outer SCF iter =    1 RMS gradient =   0.91E-05 energy =       -282.7455069844
  outer SCF loop converged in   1 iterations or   33 steps



 MULLIKEN POPULATION ANALYSIS

 #  Atom  Element  Kind  Atomic population                Net charge
       1     H        1          0.617937                  0.382063
       2     H        1          0.627354                  0.372646
       3     H        1          0.565714                  0.434286
       4     H        1          0.562715                  0.437285
       5     H        1          0.597831                  0.402169
       6     H        1          0.586965                  0.413035
       7     H        1          0.569836                  0.430164
       8     H        1          0.584294                  0.415706
       9     H        1          0.561302                  0.438698
      10     H        1          0.572097                  0.427903
      11     H        1          0.606004                  0.393996
      12     H        1          0.584689                  0.415311
      13     H        1          0.648551                  0.351449
      14     H        1          0.567965                  0.432035
      15     H        1          0.618142                  0.381858
      16     H        1          0.582534                  0.417466
      17     H        1          0.601363                  0.398637
      18     H        1          0.579629                  0.420371
      19     H        1          0.593458                  0.406542
      20     H        1          0.618957                  0.381043
      21     H        1          0.586016                  0.413984
      22     H        1          0.606959                  0.393041
      23     H        1          0.563212                  0.436788
      24     H        1          0.579976                  0.420024
      25     H        1          0.626265                  0.373735
      26     H        1          0.604903                  0.395097
      27     H        1          0.602023                  0.397977
      28     O        2          6.785478                 -0.785478
      29     O        2          6.893408                 -0.893408
      30     O        2          6.777610                 -0.777610
      31     O        2          6.770573                 -0.770573
      32     O        2          6.838626                 -0.838626
      33     O        2          6.806820                 -0.806820
      34     O        2          6.797780                 -0.797780
      35     O        2          6.783493                 -0.783493
      36     O        2          6.839242                 -0.839242
      37     O        2          6.841618                 -0.841618
      38     O        2          6.782573                 -0.782573
      39     O        2          6.758455                 -0.758455
      40     O        2          6.748922                 -0.748922
      41     H        1          0.835170                  0.164830
      42     H        1          0.856210                  0.143790
      43     H        1          0.884436                  0.115564
      44     H        1          0.919203                  0.080797
      45     C        3          4.382586                 -0.382586
      46     C        3          4.066630                 -0.066630
      47     C        3          3.339154                  0.660846
      48     O        2          6.749855                 -0.749855
      49     O        2          6.558065                 -0.558065
      50     H        4          0.967401                  0.032599
 # Total charge                134.000000                  0.000000


  Trace(PS):                                  134.0000000000
  Electronic density on regular grids:       -133.9999999937        0.0000000063
  Core density on regular grids:              133.9999999951       -0.0000000049
  Total charge density on r-space grids:        0.0000000013
  Total charge density g-space grids:           0.0000000013

  Decoupling Energy:                                               0.0002334215
  Recoupling Energy:                                              -0.0001525851
  Adding QM/MM electrostatic potential to the Kohn-Sham potential.

  HFX_MEM_INFO| Number of cart. primitive DERIV's calculated:        35252612124
  HFX_MEM_INFO| Number of sph. DERIV's calculated:                   54981386880
  HFX_MEM_INFO| Number of sph. DERIV's stored in-core:                         0
  HFX_MEM_INFO| Number of sph. DERIV's calculated on the fly:        54981386880
  HFX_MEM_INFO| Total memory consumption DERIV's RAM [MB's]                    0
  HFX_MEM_INFO| Whereof max-vals [MB's]:                                       1
  HFX_MEM_INFO| Total compression factor DERIV's RAM:                       0.00


 ENERGY| Total FORCE_EVAL ( QS ) energy (a.u.):             -282.745508515578308

 QMMM| Evaluating forces on MM atoms due to the:
 QMMM| - QM/MM Coupling computed collocating the Gaussian Potential Functions.
 QMMM| QM/MM Nuclear Electrostatic Potential :                       6.221669112
 QMMM| QMMM Total Energy (QM + QMMM electronic + QMMM nuclear):   -276.523839403
 QMMM| MM energy NOT included in the above term! Check for:  FORCE_EVAL ( QMMM )
 QMMM| that includes both QM, QMMM and MM energy terms!

 ENERGY| Total FORCE_EVAL ( QMMM ) energy (a.u.):           -283.338200161396685


 -------------------------------------------------------------------------------
 ----                             MULTIGRID INFO                            ----
 -------------------------------------------------------------------------------
 count for grid        1:         482955          cutoff [a.u.]          360.00
 count for grid        2:         335276          cutoff [a.u.]           90.00
 count for grid        3:         143292          cutoff [a.u.]           22.50
 count for grid        4:           9314          cutoff [a.u.]            5.62
 total gridlevel count  :         970837

 -------------------------------------------------------------------------------
 -                                                                             -
 -                         MESSAGE PASSING PERFORMANCE                         -
 -                                                                             -
 -------------------------------------------------------------------------------

 ROUTINE             CALLS  TOT TIME [s]  AVE VOLUME [Bytes]  PERFORMANCE [MB/s]
 MP_Group               11         0.000
 MP_Bcast              335         0.033            5638352.            57411.79
 MP_Allreduce         1089        72.809               3033.                0.05
 MP_Gather               4         0.010                400.                0.16
 MP_Sync               220       634.922
 MP_Alltoall           442         5.500           50121773.             4027.75
 MP_SendRecv          1036         5.270             588392.              115.67
 MP_ISendRecv         3971         0.017             158267.            37409.34
 MP_Wait              7806         5.029
 MP_comm_split          36         0.001
 MP_ISend             3409         0.036            1902206.           182152.30
 MP_IRecv             3408         0.033            1902462.           195878.84
 MP_Recv                18         0.000              38304.             6894.72
 -------------------------------------------------------------------------------


 -------------------------------------------------------------------------------
 -                                                                             -
 -                           R E F E R E N C E S                               -
 -                                                                             -
 -------------------------------------------------------------------------------
 
 CP2K version 2.4.0, the CP2K developers group (2013).
 CP2K is freely available from http://www.cp2k.org/ .

 Grimme, S; Antony, J; Ehrlich, S; Krieg, H. 
 JOURNAL OF CHEMICAL PHYSICS, 132 (15), 154104 (2010). 
 A consistent and accurate ab initio parametrization of density
 functional dispersion correction (DFT-D) for the 94 elements H-Pu.
 http://dx.doi.org/10.1063/1.3382344


 Guidon, M; Hutter, J; VandeVondele, J. 
 JOURNAL OF CHEMICAL THEORY AND COMPUTATION, 5 (11), 3010-3021 (2009). 
 Robust Periodic Hartree-Fock Exchange for Large-Scale Simulations Using
 Gaussian Basis Sets.
 http://dx.doi.org/10.1021/ct900494g


 Guidon, M; Schiffmann, F; Hutter, J; VandeVondele, J. 
 JOURNAL OF CHEMICAL PHYSICS, 128 (21), 214104 (2008). 
 Ab initio molecular dynamics using hybrid density functionals.
 http://dx.doi.org/10.1063/1.2931945


 Laino, T; Mohamed, F; Laio, A; Parrinello, M. 
 JOURNAL OF CHEMICAL THEORY AND COMPUTATION, 2 (5), 1370-1378 (2006). 
 An efficient linear-scaling electrostatic coupling for treating
 periodic boundary conditions in QM/MM simulations.
 http://dx.doi.org/10.1021/ct6001169


 Laino, T; Mohamed, F; Laio, A; Parrinello, M. 
 JOURNAL OF CHEMICAL THEORY AND COMPUTATION, 1 (6), 1176-1184 (2005). 
 An efficient real space multigrid OM/MM electrostatic coupling.
 http://dx.doi.org/10.1021/ct050123f


 Krack, M. 
 THEORETICAL CHEMISTRY ACCOUNTS, 114 (1-3), 145-152 (2005). 
 Pseudopotentials for H to Kr optimized for gradient-corrected
 exchange-correlation functionals.
 http://dx.doi.org/10.1007/s00214-005-0655-y


 VandeVondele, J; Krack, M; Mohamed, F; Parrinello, M; Chassaing, T;
 Hutter, J. COMPUTER PHYSICS COMMUNICATIONS, 167 (2), 103-128 (2005). 
 QUICKSTEP: Fast and accurate density functional calculations using a
 mixed Gaussian and plane waves approach.
 http://dx.doi.org/10.1016/j.cpc.2004.12.014


 Frigo, M; Johnson, SG. 
 PROCEEDINGS OF THE IEEE, 93 (2), 216-231 (2005). 
 The design and implementation of FFTW3.
 http://dx.doi.org/10.1109/JPROC.2004.840301


 VandeVondele, J; Hutter, J. 
 JOURNAL OF CHEMICAL PHYSICS, 118 (10), 4365-4369 (2003). 
 An efficient orbital transformation method for electronic structure
 calculations.
 http://dx.doi.org/10.1063/1.1543154


 Hartwigsen, C; Goedecker, S; Hutter, J. 
 PHYSICAL REVIEW B, 58 (7), 3641-3662 (1998). 
 Relativistic separable dual-space Gaussian pseudopotentials from H to Rn.
 http://dx.doi.org/10.1103/PhysRevB.58.3641


 Lippert, G; Hutter, J; Parrinello, M. 
 MOLECULAR PHYSICS, 92 (3), 477-487 (1997). 
 A hybrid Gaussian and plane wave density functional scheme.
 http://dx.doi.org/10.1080/002689797170220


 Goedecker, S; Teter, M; Hutter, J. 
 PHYSICAL REVIEW B, 54 (3), 1703-1710 (1996). 
 Separable dual-space Gaussian pseudopotentials.
 http://dx.doi.org/10.1103/PhysRevB.54.1703


 ESSMANN, U; PERERA, L; BERKOWITZ, ML; DARDEN, T; LEE, H; PEDERSEN, LG. 
 JOURNAL OF CHEMICAL PHYSICS, 103 (19), 8577-8593 (1995). 
 A SMOOTH PARTICLE MESH EWALD METHOD.
 http://dx.doi.org/10.1063/1.470117


 BLOCHL, PE. 
 JOURNAL OF CHEMICAL PHYSICS, 103 (17), 7422-7428 (1995). 
 ELECTROSTATIC DECOUPLING OF PERIODIC IMAGES OF PLANE-WAVE-EXPANDED
 DENSITIES AND DERIVED ATOMIC POINT CHARGES.
 http://dx.doi.org/10.1063/1.470314


 BECKE, AD. PHYSICAL REVIEW A, 38 (6), 3098-3100 (1988). 
 DENSITY-FUNCTIONAL EXCHANGE-ENERGY APPROXIMATION WITH CORRECT
 ASYMPTOTIC-BEHAVIOR.
 http://dx.doi.org/10.1103/PhysRevA.38.3098


 LEE, CT; YANG, WT; PARR, RG. 
 PHYSICAL REVIEW B, 37 (2), 785-789 (1988). 
 DEVELOPMENT OF THE COLLE-SALVETTI CORRELATION-ENERGY FORMULA INTO A
 FUNCTIONAL OF THE ELECTRON-DENSITY.
 http://dx.doi.org/10.1103/PhysRevB.37.785


 VOSKO, SH; WILK, L; NUSAIR, M. 
 CANADIAN JOURNAL OF PHYSICS, 58 (8), 1200-1211 (1980). 
 ACCURATE SPIN-DEPENDENT ELECTRON LIQUID CORRELATION ENERGIES FOR LOCAL
 SPIN-DENSITY CALCULATIONS - A CRITICAL ANALYSIS.
 http://dx.doi.org/10.1139/p80-159


 -------------------------------------------------------------------------------
 -                                                                             -
 -                                T I M I N G                                  -
 -                                                                             -
 -------------------------------------------------------------------------------
 SUBROUTINE                       CALLS  ASD         SELF TIME        TOTAL TIME
                                              AVERAGE  MAXIMUM  AVERAGE  MAXIMUM
 CP2K                                 1  1.0    0.554    0.715 4446.346 4446.383
 qs_forces                            1  2.0    0.042    0.078 4433.957 4433.973
 qs_ks_build_kohn_sham_matrix        34  6.9    0.055    0.089 4385.940 4385.954
 hfx_ks_matrix                       34  7.9    0.021    0.051 4307.598 4307.617
 qs_energies_scf                      1  3.0    0.053    0.146 3964.632 3964.647
 scf_env_do_scf                       1  4.0    0.001    0.003 3959.476 3959.477
 integrate_four_center               34  8.9  330.441  768.844 3957.298 3957.326
 integrate_four_center_main          34  9.9    0.019    0.047 3625.686 3950.526
 integrate_four_center_bin         2176 10.9 3625.667 3950.510 3625.667 3950.510
 qs_ks_update_qs_env                 34  6.0    0.000    0.000 3916.698 3916.709
 scf_env_do_scf_inner_loop           33  5.0    0.038    0.074 3809.789 3809.796
 qs_ks_update_qs_env_forces           1  3.0    0.000    0.000  469.249  469.249
 derivatives_four_center              1  6.0    0.215    0.298  350.265  350.267
 derivatives_four_center_main         1  7.0   54.741   99.810  349.932  349.940
 derivatives_four_center_bin         64  8.0  295.191  349.935  295.191  349.935
 init_scf_loop                        1  5.0    0.010    0.021  149.686  149.695
 -------------------------------------------------------------------------------

  **** **** ******  **  PROGRAM ENDED AT                 2016-12-23 07:47:49.753
 ***** ** ***  *** **   PROGRAM RAN ON                                 midway552
 **    ****   ******    PROGRAM RAN BY                                          
 ***** **    ** ** **   PROGRAM PROCESS ID                                 24343
  **** **  *******  **  PROGRAM STOPPED IN /project/gavoth/hmayes/asp_glu_in_wat
                                           er/glu_3.2_cp2k/cp2k_files
