Created by evbdump2data from test_data/evbd2d/0.625_20c_reorder_retype.dump timestep 548990

1429  atoms
961  bonds
514  angles
64  dihedrals
5  impropers

20  atom types
21  bond types
35  angle types
45  dihedral types
6  improper types

-12.12469     12.12469 xlo xhi
-12.12469     12.12469 ylo yhi
-12.12469     12.12469 zlo zhi

Masses

1      1.008  # HT
2    15.9994  # OT
3    15.9994  # OTH
4      1.008  # HTH
5      1.008  # H
6      1.008  # HB1
7      1.008  # HA2
8      1.008  # HA3
9     12.011  # C
10     12.011  # CT1
11     12.011  # CT2
12     12.011  # CT2A
13     12.011  # CT3
14     12.011  # CC
15     14.007  # NH1
16     15.999  # O
17     15.999  # OC
18     15.999  # OB
19     15.999  # OH1
20     12.011  # CD

Pair Coeffs

1          0          0          0          0  # HT
2  0.1554253   3.165492  0.1554253   3.165492  # OT
3  0.0986097   3.118507  0.0986097   3.118507  # OTH
4 4.0583e-05          0 4.0583e-05          0  # HTH
5      0.046  0.4000135      0.046  0.4000135  # H
6      0.022   2.351973      0.022   2.351973  # HB1
7      0.034   2.387609      0.034   2.387609  # HA2
8      0.024   2.387609      0.024   2.387609  # HA3
9       0.11   3.563595       0.11   3.563595  # C
10      0.032   3.563595       0.01   3.385415  # CT1
11      0.056   3.581413       0.01   3.385415  # CT2
12      0.056   3.581413       0.01   3.385415  # CT2A
13      0.078   3.634867       0.01   3.385415  # CT3
14       0.07   3.563595       0.07   3.563595  # CC
15        0.2   3.296325        0.2   2.761786  # NH1
16       0.12   3.029056       0.12   2.494516  # O
17       0.12   3.029056       0.12   3.029056  # OC
18       0.12   3.029056       0.12   2.494516  # OB
19     0.1521   3.153781     0.1521   3.153781  # OH1
20       0.07   3.563595       0.07   3.563595  # CD

Atoms

1 1 9 0.51 11.5799 -7.91987 7.74243 # C
2 1 16 -0.51 11.941 -9.07729 8.00167 # O
3 1 15 -0.47 -11.9445 -7.11796 6.91547 # NH1
4 1 5 0.31 11.8795 -6.28763 6.53434 # H
5 1 13 -0.11 -10.6162 -7.37688 6.32454 # CT3
6 1 8 0.09 -9.87315 -6.76475 6.85145 # HA3
7 1 8 0.09 -10.2212 -8.42966 6.53062 # HA3
8 1 8 0.09 -10.8393 -7.23398 5.25459 # HA3
9 1 13 -0.27 8.22817 -10.2692 9.65123 # CT3
10 1 8 0.09 8.98205 -11.0719 9.37219 # HA3
11 1 8 0.09 7.22884 -10.5921 9.31448 # HA3
12 1 8 0.09 8.16315 -10.1078 10.7594 # HA3
13 1 9 0.51 8.54046 -9.12323 8.88807 # C
14 1 16 -0.51 7.61752 -8.60838 8.30895 # O
15 1 15 -0.47 9.8192 -8.73311 8.81537 # NH1
16 1 5 0.31 10.5331 -9.37893 9.12565 # H
17 1 10 0.07 10.2754 -7.43799 8.30113 # CT1
18 1 6 0.09 9.76732 -7.09188 7.42481 # HB1
19 1 12 -0.18 10.4985 -6.39661 9.4731 # CT2A
20 1 7 0.09 9.43784 -6.30848 9.92617 # HA2
21 1 7 0.09 11.1594 -7.00012 10.2891 # HA2
22 1 11 -0.28 11.0214 -5.02492 9.01404 # CT2
23 1 7 0.09 11.0057 -4.35582 9.87564 # HA2
24 1 7 0.09 12.045 -5.14204 8.65177 # HA2
25 1 14 0.62 10.2199 -4.35186 7.93133 # CC
26 1 17 -0.76 10.325 -4.78425 6.79446 # OC
27 1 17 -0.76 9.45641 -3.28407 8.22245 # OC
28 2 3 -0.32 8.45683 -1.84617 6.28725 # OTH
29 2 4 0.44 9.18748 -2.75952 7.34964 # HTH
30 2 4 0.44 9.13874 -1.39798 5.65059 # HTH
31 2 4 0.44 7.46782 -2.03629 6.00801 # HTH
32 3 2 -0.82 -2.89763 -0.100846 2.43577 # OT
33 3 1 0.41 -2.61966 -0.811182 1.7583 # HT
34 3 1 0.41 -3.18947 0.699767 1.87208 # HT
35 4 2 -0.82 10.0475 9.08007 5.15452 # OT
36 4 1 0.41 9.07859 8.88233 4.91879 # HT
37 4 1 0.41 10.4017 9.82138 4.5112 # HT
38 5 2 -0.82 -10.691 -5.13918 -9.90851 # OT
39 5 1 0.41 -10.8639 -5.03669 -10.9077 # HT
40 5 1 0.41 -11.5835 -5.47073 -9.56851 # HT
41 6 2 -0.82 3.99222 -7.12203 -3.12584 # OT
42 6 1 0.41 4.3994 -7.96795 -3.54218 # HT
43 6 1 0.41 3.00837 -7.21325 -2.97776 # HT
44 7 2 -0.82 0.255916 -3.43962 1.64095 # OT
45 7 1 0.41 -0.656319 -3.04138 1.32804 # HT
46 7 1 0.41 0.519562 -4.23035 1.00574 # HT
47 8 2 -0.82 5.52482 6.17454 0.35008 # OT
48 8 1 0.41 5.02586 5.34577 -0.0257994 # HT
49 8 1 0.41 5.30189 6.43114 1.3242 # HT
50 9 2 -0.82 2.57833 10.6882 0.67392 # OT
51 9 1 0.41 2.55332 10.8731 1.73861 # HT
52 9 1 0.41 2.16022 9.78602 0.51733 # HT
53 10 2 -0.82 -1.79922 9.62254 -8.21601 # OT
54 10 1 0.41 -1.43616 10.5234 -8.4927 # HT
55 10 1 0.41 -2.06347 9.64515 -7.2094 # HT
56 11 2 -0.82 9.49861 -7.272 -11.1432 # OT
57 11 1 0.41 9.52083 -6.38932 -10.6232 # HT
58 11 1 0.41 9.02635 -7.89033 -10.4361 # HT
59 12 2 -0.82 11.4697 -10.2345 1.32613 # OT
60 12 1 0.41 -11.9205 -10.5207 1.78654 # HT
61 12 1 0.41 11.5854 -10.1857 0.272433 # HT
62 13 2 -0.82 -8.19556 3.04322 -1.16637 # OT
63 13 1 0.41 -8.88988 2.77077 -0.468627 # HT
64 13 1 0.41 -7.95187 4.03919 -1.04343 # HT
65 14 2 -0.82 12.0621 8.95532 -7.63261 # OT
66 14 1 0.41 11.0035 8.93352 -7.8093 # HT
67 14 1 0.41 -11.8157 9.89685 -7.80928 # HT
68 15 2 -0.82 -11.1287 -6.18422 -1.4509 # OT
69 15 1 0.41 -11.5552 -5.56648 -0.725979 # HT
70 15 1 0.41 -11.8578 -6.71998 -1.88958 # HT
71 16 2 -0.82 -10.5711 -1.36626 5.66617 # OT
72 16 1 0.41 -10.2618 -1.69377 4.72759 # HT
73 16 1 0.41 -9.77655 -1.5357 6.35912 # HT
74 17 2 -0.82 -4.11889 9.46071 -3.19037 # OT
75 17 1 0.41 -4.42661 8.66474 -2.63447 # HT
76 17 1 0.41 -4.81019 9.74937 -3.94253 # HT
77 18 2 -0.82 -11.8784 11.1903 1.50179 # OT
78 18 1 0.41 -11.6674 11.5244 2.45719 # HT
79 18 1 0.41 11.4074 10.8984 1.46631 # HT
80 19 2 -0.82 1.87229 7.1266 11.2712 # OT
81 19 1 0.41 2.6874 7.80566 11.362 # HT
82 19 1 0.41 2.04878 6.31547 10.7332 # HT
83 20 2 -0.82 -8.36209 4.71922 10.3262 # OT
84 20 1 0.41 -8.13416 5.64599 9.97929 # HT
85 20 1 0.41 -8.39518 4.03074 9.55476 # HT
86 21 2 -0.82 -12.1107 5.74157 -10.62 # OT
87 21 1 0.41 -11.6696 5.34152 -11.4226 # HT
88 21 1 0.41 11.1701 5.79888 -10.9485 # HT
89 22 2 -0.82 -1.55145 -0.845942 7.39097 # OT
90 22 1 0.41 -1.67669 -0.702332 8.44314 # HT
91 22 1 0.41 -1.7243 0.00734908 6.92443 # HT
92 23 2 -0.82 9.54413 7.87411 -8.39107 # OT
93 23 1 0.41 9.43536 8.46485 -9.23454 # HT
94 23 1 0.41 9.56721 6.88498 -8.72383 # HT
95 24 2 -0.82 12.0737 -8.01209 -3.43411 # OT
96 24 1 0.41 11.4451 -7.95822 -4.2132 # HT
97 24 1 0.41 -11.3298 -7.49858 -3.7925 # HT
98 25 2 -0.82 4.68385 -8.56457 0.266748 # OT
99 25 1 0.41 5.54957 -8.07017 0.141765 # HT
100 25 1 0.41 4.88253 -9.54699 0.575835 # HT
101 26 2 -0.82 0.584707 0.602784 -7.90488 # OT
102 26 1 0.41 1.23827 0.161698 -7.24484 # HT
103 26 1 0.41 0.20852 -0.258704 -8.32632 # HT
104 27 2 -0.82 -3.73886 6.49073 -1.9945 # OT
105 27 1 0.41 -3.68413 6.36005 -0.981989 # HT
106 27 1 0.41 -2.83256 6.504 -2.44641 # HT
107 28 2 -0.82 0.981003 -11.4753 -0.79941 # OT
108 28 1 0.41 0.0359189 -11.3736 -0.427533 # HT
109 28 1 0.41 1.47542 12.0492 -0.279741 # HT
110 29 2 -0.82 -10.0044 1.66664 0.630619 # OT
111 29 1 0.41 -9.62283 2.11865 1.47409 # HT
112 29 1 0.41 -10.7104 2.3128 0.178371 # HT
113 30 2 -0.82 -10.5479 -5.18444 11.2382 # OT
114 30 1 0.41 -10.059 -5.30118 10.3347 # HT
115 30 1 0.41 -10.9116 -6.15754 11.4293 # HT
116 31 2 -0.82 11.5682 4.0689 -7.14486 # OT
117 31 1 0.41 12.1418 3.5573 -6.44632 # HT
118 31 1 0.41 11.8035 5.08236 -7.23963 # HT
119 32 2 -0.82 -5.27215 4.30595 -10.2391 # OT
120 32 1 0.41 -5.01525 4.20192 -11.2434 # HT
121 32 1 0.41 -5.84904 3.48257 -9.93962 # HT
122 33 2 -0.82 1.86682 -0.486246 -5.55486 # OT
123 33 1 0.41 2.04114 0.335738 -4.93859 # HT
124 33 1 0.41 2.80364 -0.889748 -5.71657 # HT
125 34 2 -0.82 -6.66026 5.01827 2.63712 # OT
126 34 1 0.41 -6.69783 5.86122 2.13505 # HT
127 34 1 0.41 -7.43924 4.40192 2.42559 # HT
128 35 2 -0.82 -5.51879 -1.40399 -0.80549 # OT
129 35 1 0.41 -4.58885 -1.86453 -0.733521 # HT
130 35 1 0.41 -5.57088 -0.597613 -1.38915 # HT
131 36 2 -0.82 -5.11736 8.74145 7.37796 # OT
132 36 1 0.41 -5.90661 8.18372 7.59346 # HT
133 36 1 0.41 -5.54651 9.66224 7.33069 # HT
134 37 2 -0.82 4.62194 -1.0004 -6.06556 # OT
135 37 1 0.41 4.66239 -1.4543 -6.95195 # HT
136 37 1 0.41 5.43743 -0.355572 -6.11563 # HT
137 38 2 -0.82 -1.51632 11.0809 5.30397 # OT
138 38 1 0.41 -2.27971 10.3776 5.19755 # HT
139 38 1 0.41 -0.614829 10.5793 5.42462 # HT
140 39 2 -0.82 -0.0725123 -1.76147 -8.72482 # OT
141 39 1 0.41 0.923044 -1.86815 -8.51309 # HT
142 39 1 0.41 -0.395274 -2.68804 -9.01857 # HT
143 40 2 -0.82 -10.7703 -7.85735 11.6922 # OT
144 40 1 0.41 -9.9659 -7.95435 -11.9328 # HT
145 40 1 0.41 -11.6411 -8.24513 -12.1272 # HT
146 41 2 -0.82 11.9856 9.68495 -4.81238 # OT
147 41 1 0.41 11.063 10.0929 -4.83458 # HT
148 41 1 0.41 12.0641 9.16437 -5.70549 # HT
149 42 2 -0.82 -11.2261 0.328289 -10.4032 # OT
150 42 1 0.41 -11.201 1.20501 -9.83516 # HT
151 42 1 0.41 -10.6937 -0.418612 -9.94852 # HT
152 43 2 -0.82 -2.21352 -4.62688 10.4382 # OT
153 43 1 0.41 -1.69554 -3.86987 9.93143 # HT
154 43 1 0.41 -1.80358 -5.55422 10.5337 # HT
155 44 2 -0.82 -8.98312 -5.31792 -8.02602 # OT
156 44 1 0.41 -8.70839 -6.28249 -8.07875 # HT
157 44 1 0.41 -9.70309 -5.16284 -8.7655 # HT
158 45 2 -0.82 -6.62015 -7.20922 -3.05642 # OT
159 45 1 0.41 -6.92602 -6.32639 -2.55728 # HT
160 45 1 0.41 -6.77301 -6.99807 -4.05843 # HT
161 46 2 -0.82 2.55976 -8.65873 -6.88141 # OT
162 46 1 0.41 2.5358 -8.86539 -5.86521 # HT
163 46 1 0.41 3.53359 -8.76051 -7.16366 # HT
164 47 2 -0.82 3.30866 8.45916 -6.48305 # OT
165 47 1 0.41 3.8125 9.32253 -6.6939 # HT
166 47 1 0.41 3.40964 7.72591 -7.17887 # HT
167 48 2 -0.82 2.56044 6.23331 2.22863 # OT
168 48 1 0.41 3.5301 6.18662 2.55903 # HT
169 48 1 0.41 2.11044 6.92701 2.88296 # HT
170 49 2 -0.82 -10.9838 4.67069 11.5376 # OT
171 49 1 0.41 -11.2304 3.65274 11.5262 # HT
172 49 1 0.41 -10.2377 4.80977 10.8047 # HT
173 50 2 -0.82 -9.1738 -2.01749 3.5585 # OT
174 50 1 0.41 -8.34447 -1.88424 4.12382 # HT
175 50 1 0.41 -8.91206 -2.22956 2.61063 # HT
176 51 2 -0.82 11.0875 2.57321 -1.48236 # OT
177 51 1 0.41 10.1817 2.89034 -1.7294 # HT
178 51 1 0.41 11.4971 3.13976 -0.765738 # HT
179 52 2 -0.82 5.96418 -7.9813 10.9811 # OT
180 52 1 0.41 6.4944 -8.04955 10.0789 # HT
181 52 1 0.41 5.08774 -8.48553 10.7541 # HT
182 53 2 -0.82 1.23371 9.27994 9.24679 # OT
183 53 1 0.41 1.45455 8.45084 8.80701 # HT
184 53 1 0.41 1.09081 9.18001 10.216 # HT
185 54 2 -0.82 7.15352 6.57135 -5.17179 # OT
186 54 1 0.41 7.86389 5.8128 -5.05844 # HT
187 54 1 0.41 6.24038 6.14628 -5.01445 # HT
188 55 2 -0.82 0.751506 9.59668 5.50077 # OT
189 55 1 0.41 1.42779 10.1603 4.98034 # HT
190 55 1 0.41 0.597768 8.7614 4.91208 # HT
191 56 2 -0.82 2.12003 -4.71325 -9.64417 # OT
192 56 1 0.41 1.07244 -4.51212 -9.54088 # HT
193 56 1 0.41 2.38514 -4.70279 -10.6535 # HT
194 57 2 -0.82 -10.8449 2.71634 -8.7393 # OT
195 57 1 0.41 -10.0747 3.32522 -9.00413 # HT
196 57 1 0.41 -11.6921 3.20816 -8.37522 # HT
197 58 2 -0.82 -12.0985 4.25599 8.49054 # OT
198 58 1 0.41 -12.0857 4.41987 9.47497 # HT
199 58 1 0.41 11.8351 3.31394 8.33671 # HT
200 59 2 -0.82 -9.47446 0.374988 -7.49339 # OT
201 59 1 0.41 -9.92047 -0.410526 -7.0253 # HT
202 59 1 0.41 -10.0511 1.21082 -7.5515 # HT
203 60 2 -0.82 0.696464 6.82311 7.34455 # OT
204 60 1 0.41 -0.242196 7.29638 7.33162 # HT
205 60 1 0.41 0.664706 6.02582 7.96299 # HT
206 61 2 -0.82 -7.74003 -0.0962924 -4.17078 # OT
207 61 1 0.41 -8.41731 0.616297 -4.45301 # HT
208 61 1 0.41 -7.04682 0.332711 -3.48728 # HT
209 62 2 -0.82 6.916 -1.27977 11.8671 # OT
210 62 1 0.41 7.70403 -1.61417 -11.8513 # HT
211 62 1 0.41 7.22399 -1.29111 10.9024 # HT
212 63 2 -0.82 -10.1495 5.88111 7.35542 # OT
213 63 1 0.41 -10.4922 6.76148 7.8067 # HT
214 63 1 0.41 -10.6153 5.14013 7.79273 # HT
215 64 2 -0.82 6.25806 -9.96968 -11.4642 # OT
216 64 1 0.41 6.35486 -9.13144 -12.1002 # HT
217 64 1 0.41 5.80792 -9.70638 -10.5651 # HT
218 65 2 -0.82 5.69842 -2.52598 2.86621 # OT
219 65 1 0.41 4.96637 -1.87574 3.2535 # HT
220 65 1 0.41 5.43431 -3.43001 3.25789 # HT
221 66 2 -0.82 5.54184 8.26596 -1.39804 # OT
222 66 1 0.41 6.11086 8.9454 -0.869165 # HT
223 66 1 0.41 5.47219 7.36752 -0.780795 # HT
224 67 2 -0.82 -6.67015 -2.23594 4.68722 # OT
225 67 1 0.41 -6.24377 -2.10065 3.79202 # HT
226 67 1 0.41 -6.38967 -1.54018 5.40302 # HT
227 68 2 -0.82 -11.5488 1.51153 8.10571 # OT
228 68 1 0.41 -11.8779 0.909507 7.31067 # HT
229 68 1 0.41 -10.5324 1.61416 8.05914 # HT
230 69 2 -0.82 6.81021 0.0531031 -2.93088 # OT
231 69 1 0.41 6.45739 0.427611 -1.98554 # HT
232 69 1 0.41 6.2486 -0.68625 -3.20291 # HT
233 70 2 -0.82 -8.26723 -3.21433 1.3191 # OT
234 70 1 0.41 -7.27015 -3.41263 1.09721 # HT
235 70 1 0.41 -8.93046 -4.00241 1.42848 # HT
236 71 2 -0.82 -0.829807 8.91739 2.15245 # OT
237 71 1 0.41 -0.333125 8.72202 1.33881 # HT
238 71 1 0.41 -1.22038 9.85355 2.00942 # HT
239 72 2 -0.82 -7.01845 -7.8097 11.1587 # OT
240 72 1 0.41 -7.5875 -7.87325 10.278 # HT
241 72 1 0.41 -6.12107 -8.25991 11.0776 # HT
242 73 2 -0.82 -4.28821 -9.12205 8.16331 # OT
243 73 1 0.41 -3.5765 -9.93805 8.02501 # HT
244 73 1 0.41 -4.25305 -8.50142 7.37434 # HT
245 74 2 -0.82 5.86835 -11.796 4.55464 # OT
246 74 1 0.41 5.4574 -11.9885 5.49956 # HT
247 74 1 0.41 5.76566 -10.8361 4.21925 # HT
248 75 2 -0.82 -8.99576 11.3848 -7.4068 # OT
249 75 1 0.41 -8.06956 11.846 -7.52797 # HT
250 75 1 0.41 -8.96584 10.7175 -6.59247 # HT
251 76 2 -0.82 4.15225 -4.2191 -0.570229 # OT
252 76 1 0.41 4.7376 -4.62738 -1.3121 # HT
253 76 1 0.41 3.71613 -4.94065 0.0210837 # HT
254 77 2 -0.82 -2.55563 3.96296 8.68076 # OT
255 77 1 0.41 -2.72578 4.97109 8.84404 # HT
256 77 1 0.41 -2.30603 3.62047 9.61674 # HT
257 78 2 -0.82 -5.54439 -4.3346 1.82268 # OT
258 78 1 0.41 -4.92136 -4.10413 2.60689 # HT
259 78 1 0.41 -5.78636 -5.3157 1.96114 # HT
260 79 2 -0.82 -11.8073 11.5835 -8.60414 # OT
261 79 1 0.41 -11.8024 11.6539 -9.65152 # HT
262 79 1 0.41 -10.967 12.0637 -8.3242 # HT
263 80 2 -0.82 3.30991 8.49654 -10.4884 # OT
264 80 1 0.41 3.9698 7.97416 -9.90847 # HT
265 80 1 0.41 2.43224 8.59082 -9.99171 # HT
266 81 2 -0.82 6.55633 -10.1676 -7.80311 # OT
267 81 1 0.41 6.54159 -11.1544 -7.46011 # HT
268 81 1 0.41 5.62419 -10.0211 -8.138 # HT
269 82 2 -0.82 4.33317 -9.69147 -9.39606 # OT
270 82 1 0.41 3.94899 -8.87791 -9.9018 # HT
271 82 1 0.41 3.67211 -10.4529 -9.70444 # HT
272 83 2 -0.82 10.9806 -11.7197 8.06369 # OT
273 83 1 0.41 10.127 -11.6251 7.59849 # HT
274 83 1 0.41 11.6247 -11.035 7.53819 # HT
275 84 2 -0.82 5.80128 -9.80618 -4.55714 # OT
276 84 1 0.41 6.70239 -9.42259 -4.78042 # HT
277 84 1 0.41 5.5585 -9.77024 -3.54567 # HT
278 85 2 -0.82 10.7899 -11.3888 -6.84997 # OT
279 85 1 0.41 11.5755 -11.7424 -7.37462 # HT
280 85 1 0.41 9.97168 -11.9753 -7.08092 # HT
281 86 2 -0.82 -2.31727 -3.10108 6.02117 # OT
282 86 1 0.41 -3.30915 -3.03373 5.95601 # HT
283 86 1 0.41 -1.99443 -2.40306 6.66895 # HT
284 87 2 -0.82 -9.11315 5.38521 -7.14429 # OT
285 87 1 0.41 -10.0898 5.55002 -7.48578 # HT
286 87 1 0.41 -8.53472 6.2074 -7.11814 # HT
287 88 2 -0.82 -1.95884 -9.32917 11.4796 # OT
288 88 1 0.41 -1.45965 -9.78766 10.6818 # HT
289 88 1 0.41 -2.28194 -10.2617 11.862 # HT
290 89 2 -0.82 -8.75272 3.22428 2.81023 # OT
291 89 1 0.41 -8.16963 2.41399 3.21438 # HT
292 89 1 0.41 -9.00186 3.9069 3.58081 # HT
293 90 2 -0.82 -1.95512 -5.60045 -1.0757 # OT
294 90 1 0.41 -2.51294 -6.44279 -1.23219 # HT
295 90 1 0.41 -2.58127 -4.80688 -0.899206 # HT
296 91 2 -0.82 -6.10826 1.63007 -9.80869 # OT
297 91 1 0.41 -5.45439 1.01633 -10.2778 # HT
298 91 1 0.41 -6.80807 1.12236 -9.27695 # HT
299 92 2 -0.82 -1.53839 8.9722 7.4528 # OT
300 92 1 0.41 -2.23799 8.82453 6.72389 # HT
301 92 1 0.41 -0.706996 9.35272 7.01109 # HT
302 93 2 -0.82 -1.49946 -11.9937 -8.36354 # OT
303 93 1 0.41 -0.985002 -11.3176 -7.75909 # HT
304 93 1 0.41 -2.39038 -11.6394 -8.75517 # HT
305 94 2 -0.82 -6.72073 -7.08563 3.54022 # OT
306 94 1 0.41 -7.09098 -6.26582 3.93193 # HT
307 94 1 0.41 -7.04002 -7.87429 4.16945 # HT
308 95 2 -0.82 -11.4725 7.62873 1.84381 # OT
309 95 1 0.41 11.8113 7.49185 1.42644 # HT
310 95 1 0.41 -11.4473 8.35712 2.61555 # HT
311 96 2 -0.82 -0.62532 -6.99015 11.0193 # OT
312 96 1 0.41 -1.2037 -7.84942 10.9573 # HT
313 96 1 0.41 -0.108944 -6.99842 11.9006 # HT
314 97 2 -0.82 4.83953 3.39457 -3.38305 # OT
315 97 1 0.41 4.97775 4.22866 -3.97905 # HT
316 97 1 0.41 3.95839 2.98532 -3.74903 # HT
317 98 2 -0.82 -4.57607 9.5645 1.92204 # OT
318 98 1 0.41 -4.83983 10.3537 1.28761 # HT
319 98 1 0.41 -5.31289 9.78459 2.68776 # HT
320 99 2 -0.82 -0.550674 8.18379 -12.1405 # OT
321 99 1 0.41 0.246895 7.74222 11.6591 # HT
322 99 1 0.41 -0.958717 7.64246 -11.3938 # HT
323 100 2 -0.82 0.981316 7.43984 -2.0486 # OT
324 100 1 0.41 1.79911 7.24889 -2.63443 # HT
325 100 1 0.41 0.230173 6.77222 -2.43743 # HT
326 101 2 -0.82 -10.892 -8.90888 -9.34183 # OT
327 101 1 0.41 -9.99245 -8.67218 -9.75533 # HT
328 101 1 0.41 -11.4402 -9.52846 -9.99118 # HT
329 102 2 -0.82 -10.8174 8.48654 8.16803 # OT
330 102 1 0.41 -11.6487 8.49981 7.58425 # HT
331 102 1 0.41 -11.0438 8.69955 9.14626 # HT
332 103 2 -0.82 -4.5083 -7.52901 5.72119 # OT
333 103 1 0.41 -4.17011 -6.93994 4.97099 # HT
334 103 1 0.41 -5.0233 -8.35748 5.33544 # HT
335 104 2 -0.82 9.16777 4.48376 -2.16189 # OT
336 104 1 0.41 8.75685 4.38803 -3.12522 # HT
337 104 1 0.41 9.97241 5.08696 -2.25161 # HT
338 105 2 -0.82 6.51929 -4.74846 4.70097 # OT
339 105 1 0.41 6.26217 -3.9944 5.3183 # HT
340 105 1 0.41 6.61601 -5.55886 5.35325 # HT
341 106 2 -0.82 1.98624 4.05827 0.795306 # OT
342 106 1 0.41 1.96185 5.03265 1.05143 # HT
343 106 1 0.41 2.79629 3.98407 0.122979 # HT
344 107 2 -0.82 9.56718 -4.3551 -9.54166 # OT
345 107 1 0.41 10.3281 -4.90058 -9.14059 # HT
346 107 1 0.41 8.95608 -3.98435 -8.75761 # HT
347 108 2 -0.82 -3.39377 -12.0536 -3.01596 # OT
348 108 1 0.41 -3.47969 11.1933 -3.19984 # HT
349 108 1 0.41 -3.85466 -11.9059 -2.11777 # HT
350 109 2 -0.82 -6.91142 -10.011 -9.45738 # OT
351 109 1 0.41 -6.56645 -10.2812 -8.5175 # HT
352 109 1 0.41 -6.23066 -9.35244 -9.84126 # HT
353 110 2 -0.82 -2.11205 -2.18648 -6.86159 # OT
354 110 1 0.41 -1.67368 -2.09983 -5.93093 # HT
355 110 1 0.41 -1.48975 -1.69296 -7.43937 # HT
356 111 2 -0.82 6.93864 0.592901 -0.0205307 # OT
357 111 1 0.41 7.93484 0.910724 -0.0295964 # HT
358 111 1 0.41 6.90302 -0.440579 -0.0212911 # HT
359 112 2 -0.82 10.9734 7.74319 7.15976 # OT
360 112 1 0.41 10.7151 6.78633 6.86463 # HT
361 112 1 0.41 10.6268 8.30219 6.30108 # HT
362 113 2 -0.82 6.01178 0.240157 7.5545 # OT
363 113 1 0.41 6.48675 1.04027 7.07001 # HT
364 113 1 0.41 5.50529 0.602914 8.34647 # HT
365 114 2 -0.82 4.26139 -10.0162 -2.31409 # OT
366 114 1 0.41 4.04605 -10.9953 -2.10988 # HT
367 114 1 0.41 4.38855 -9.63576 -1.39531 # HT
368 115 2 -0.82 -5.0575 -5.7737 -8.57031 # OT
369 115 1 0.41 -5.07335 -5.84294 -9.55542 # HT
370 115 1 0.41 -4.47267 -6.48526 -8.17262 # HT
371 116 2 -0.82 -8.48375 3.23473 7.71026 # OT
372 116 1 0.41 -8.52322 2.32918 8.27176 # HT
373 116 1 0.41 -9.36114 3.3654 7.22509 # HT
374 117 2 -0.82 -5.48386 -9.93203 -4.9216 # OT
375 117 1 0.41 -5.97369 -10.4346 -4.17387 # HT
376 117 1 0.41 -4.8155 -9.2871 -4.55948 # HT
377 118 2 -0.82 3.07325 6.81101 5.84246 # OT
378 118 1 0.41 3.17949 5.83069 5.47385 # HT
379 118 1 0.41 2.12427 6.80709 6.09429 # HT
380 119 2 -0.82 -9.8212 1.31048 5.55412 # OT
381 119 1 0.41 -10.0299 0.400481 5.86054 # HT
382 119 1 0.41 -8.97921 1.35977 5.01531 # HT
383 120 2 -0.82 4.93643 6.98379 -8.25054 # OT
384 120 1 0.41 5.35865 5.99177 -8.28191 # HT
385 120 1 0.41 5.62583 7.55073 -7.73472 # HT
386 121 2 -0.82 10.5452 -10.8652 5.32359 # OT
387 121 1 0.41 9.69809 -11.4668 5.53974 # HT
388 121 1 0.41 10.189 -10.3438 4.46941 # HT
389 122 2 -0.82 -6.51657 11.0009 6.51085 # OT
390 122 1 0.41 -6.61922 11.749 7.24172 # HT
391 122 1 0.41 -7.3423 10.358 6.65911 # HT
392 123 2 -0.82 11.951 4.34979 0.525038 # OT
393 123 1 0.41 12.1205 5.38441 0.594951 # HT
394 123 1 0.41 12.038 3.93588 1.47806 # HT
395 124 2 -0.82 5.72609 -5.12286 -6.79541 # OT
396 124 1 0.41 4.99338 -5.81537 -6.87105 # HT
397 124 1 0.41 5.43989 -4.26299 -7.30309 # HT
398 125 2 -0.82 2.93671 10.3307 11.8914 # OT
399 125 1 0.41 3.12447 9.63021 -11.6045 # HT
400 125 1 0.41 3.78947 10.8204 11.8609 # HT
401 126 2 -0.82 10.1474 3.82728 11.2049 # OT
402 126 1 0.41 9.29627 3.36569 10.7704 # HT
403 126 1 0.41 10.8777 3.08419 11.1304 # HT
404 127 2 -0.82 -2.11126 3.42617 -6.9784 # OT
405 127 1 0.41 -1.28246 3.06788 -6.5202 # HT
406 127 1 0.41 -2.83768 2.73539 -6.94607 # HT
407 128 2 -0.82 2.055 0.388778 11.7545 # OT
408 128 1 0.41 1.32325 0.0497769 -11.91 # HT
409 128 1 0.41 2.80425 -0.32793 11.7721 # HT
410 129 2 -0.82 -1.25071 5.64532 5.12722 # OT
411 129 1 0.41 -0.956222 5.44214 6.09518 # HT
412 129 1 0.41 -2.22154 5.94327 5.21935 # HT
413 130 2 -0.82 8.63235 4.39553 -4.7664 # OT
414 130 1 0.41 9.55516 4.15841 -5.18243 # HT
415 130 1 0.41 8.05363 3.5036 -4.71157 # HT
416 131 2 -0.82 -6.008 -5.91752 -11.4412 # OT
417 131 1 0.41 -6.38189 -6.47857 12.0484 # HT
418 131 1 0.41 -6.58088 -5.04027 -11.5792 # HT
419 132 2 -0.82 -0.753841 -8.38001 4.58323 # OT
420 132 1 0.41 -1.54578 -8.97129 4.59568 # HT
421 132 1 0.41 -0.266844 -8.52372 5.44441 # HT
422 133 2 -0.82 -6.28394 4.67407 -5.31891 # OT
423 133 1 0.41 -5.83178 5.53322 -5.68007 # HT
424 133 1 0.41 -6.70975 4.12765 -6.1241 # HT
425 134 2 -0.82 -7.20584 -10.8968 -6.83954 # OT
426 134 1 0.41 -6.44685 -10.6545 -6.161 # HT
427 134 1 0.41 -8.03646 -10.3275 -6.66747 # HT
428 135 2 -0.82 2.86396 -5.83185 5.25573 # OT
429 135 1 0.41 1.85232 -5.83902 5.17288 # HT
430 135 1 0.41 3.14234 -4.86286 5.11049 # HT
431 136 2 -0.82 1.01486 -8.6929 0.205549 # OT
432 136 1 0.41 1.33483 -8.75036 1.2147 # HT
433 136 1 0.41 1.33484 -9.5802 -0.166125 # HT
434 137 2 -0.82 3.49532 7.93691 -3.15834 # OT
435 137 1 0.41 3.96772 8.37499 -3.90836 # HT
436 137 1 0.41 4.11055 8.11752 -2.34908 # HT
437 138 2 -0.82 6.46686 -2.4102 0.235483 # OT
438 138 1 0.41 5.55881 -2.73448 -0.149644 # HT
439 138 1 0.41 6.27627 -2.38067 1.24548 # HT
440 139 2 -0.82 0.0590545 -3.27217 9.30301 # OT
441 139 1 0.41 0.358928 -4.21748 9.02243 # HT
442 139 1 0.41 0.38554 -2.67119 8.5332 # HT
443 140 2 -0.82 6.20905 -5.9402 -11.5958 # OT
444 140 1 0.41 6.68702 -5.98729 -10.6889 # HT
445 140 1 0.41 6.13098 -6.81874 -12.1259 # HT
446 141 2 -0.82 -7.78944 -8.85229 5.25576 # OT
447 141 1 0.41 -7.18982 -9.1097 6.00361 # HT
448 141 1 0.41 -8.48848 -9.51541 5.42015 # HT
449 142 2 -0.82 8.50544 -7.89615 -4.80648 # OT
450 142 1 0.41 9.04286 -8.23897 -5.6152 # HT
451 142 1 0.41 8.26152 -6.90987 -5.0579 # HT
452 143 2 -0.82 -2.47952 11.2172 2.53333 # OT
453 143 1 0.41 -3.29162 10.5975 2.38204 # HT
454 143 1 0.41 -2.27736 11.312 3.53164 # HT
455 144 2 -0.82 -5.8572 -0.431897 6.61683 # OT
456 144 1 0.41 -5.25065 -0.291645 5.73689 # HT
457 144 1 0.41 -5.44214 0.192614 7.37672 # HT
458 145 2 -0.82 9.14546 6.97324 9.95474 # OT
459 145 1 0.41 9.275 6.28301 10.6772 # HT
460 145 1 0.41 9.95333 7.44905 9.50235 # HT
461 146 2 -0.82 8.05085 -5.36763 -5.29131 # OT
462 146 1 0.41 7.91807 -4.57691 -4.57839 # HT
463 146 1 0.41 7.22111 -5.26526 -5.87989 # HT
464 147 2 -0.82 -8.59377 -5.70298 -0.406633 # OT
465 147 1 0.41 -8.65149 -6.43749 0.309347 # HT
466 147 1 0.41 -9.40641 -5.68397 -1.03732 # HT
467 148 2 -0.82 -5.01082 7.6436 10.6505 # OT
468 148 1 0.41 -5.84802 7.99308 10.1316 # HT
469 148 1 0.41 -4.75425 8.36701 11.3592 # HT
470 149 2 -0.82 5.86732 -3.96044 8.82766 # OT
471 149 1 0.41 6.3611 -3.95927 9.74702 # HT
472 149 1 0.41 6.00582 -4.87049 8.41827 # HT
473 150 2 -0.82 3.59994 -8.60268 5.68981 # OT
474 150 1 0.41 4.46509 -8.80995 5.2235 # HT
475 150 1 0.41 3.31005 -7.65074 5.42218 # HT
476 151 2 -0.82 -6.23491 1.08777 -1.94725 # OT
477 151 1 0.41 -6.82113 1.86758 -1.60619 # HT
478 151 1 0.41 -5.23055 1.41031 -2.00162 # HT
479 152 2 -0.82 8.02665 6.26882 5.90824 # OT
480 152 1 0.41 7.77779 5.77481 5.01239 # HT
481 152 1 0.41 8.99749 5.88444 6.10499 # HT
482 153 2 -0.82 0.620495 -5.7384 0.298992 # OT
483 153 1 0.41 0.240939 -6.58134 0.756624 # HT
484 153 1 0.41 -0.17185 -5.31462 -0.111889 # HT
485 154 2 -0.82 -5.80796 -12.0181 -11.8648 # OT
486 154 1 0.41 -6.49772 12.0182 -11.1191 # HT
487 154 1 0.41 -6.27956 -11.3393 11.8106 # HT
488 155 2 -0.82 3.16334 4.23283 -6.98662 # OT
489 155 1 0.41 3.54789 3.64113 -7.79415 # HT
490 155 1 0.41 2.5798 4.95217 -7.28266 # HT
491 156 2 -0.82 -4.5878 3.25608 11.3708 # OT
492 156 1 0.41 -5.04008 3.99808 10.8138 # HT
493 156 1 0.41 -5.13874 2.41526 11.2322 # HT
494 157 2 -0.82 0.72974 2.9263 6.34493 # OT
495 157 1 0.41 1.35919 3.5038 5.71459 # HT
496 157 1 0.41 1.05187 1.95166 6.16164 # HT
497 158 2 -0.82 0.313835 -7.57468 -10.5394 # OT
498 158 1 0.41 -0.00326455 -8.53976 -10.3027 # HT
499 158 1 0.41 -0.35233 -6.93606 -10.1122 # HT
500 159 2 -0.82 -3.50145 0.757059 5.02192 # OT
501 159 1 0.41 -3.01455 1.45093 5.619 # HT
502 159 1 0.41 -3.32728 0.85636 3.97529 # HT
503 160 2 -0.82 10.7131 -5.93408 -5.51476 # OT
504 160 1 0.41 9.7554 -5.9979 -5.21612 # HT
505 160 1 0.41 11.1539 -5.24766 -4.93462 # HT
506 161 2 -0.82 -6.30128 5.75782 -2.71305 # OT
507 161 1 0.41 -6.02705 5.14822 -3.53232 # HT
508 161 1 0.41 -5.43516 5.82269 -2.13842 # HT
509 162 2 -0.82 -10.6231 -2.87191 -4.16241 # OT
510 162 1 0.41 -10.0299 -2.61191 -3.37815 # HT
511 162 1 0.41 -10.0304 -3.33308 -4.85316 # HT
512 163 2 -0.82 0.787081 8.22723 -5.9437 # OT
513 163 1 0.41 0.481835 7.4003 -6.49109 # HT
514 163 1 0.41 1.80626 8.3332 -5.97477 # HT
515 164 2 -0.82 -11.0795 -2.32396 -9.41287 # OT
516 164 1 0.41 -11.9202 -2.1057 -8.87036 # HT
517 164 1 0.41 -10.7987 -3.28792 -9.57599 # HT
518 165 2 -0.82 10.0406 -6.32862 3.60891 # OT
519 165 1 0.41 9.73291 -5.40304 3.31479 # HT
520 165 1 0.41 10.6516 -6.75795 2.88149 # HT
521 166 2 -0.82 -7.74987 2.53082 12.11 # OT
522 166 1 0.41 -8.0118 2.98681 -11.22 # HT
523 166 1 0.41 -7.77731 3.41304 11.5526 # HT
524 167 2 -0.82 -3.56044 1.42647 -4.67488 # OT
525 167 1 0.41 -4.02058 1.72917 -5.53948 # HT
526 167 1 0.41 -3.90667 0.467365 -4.3712 # HT
527 168 2 -0.82 11.2402 6.0825 -2.65593 # OT
528 168 1 0.41 11.892 5.84419 -1.85164 # HT
529 168 1 0.41 11.8982 6.03809 -3.45596 # HT
530 169 2 -0.82 2.47108 -9.76227 -4.32517 # OT
531 169 1 0.41 3.04912 -9.78481 -3.50245 # HT
532 169 1 0.41 1.78619 -10.4966 -4.21111 # HT
533 170 2 -0.82 -1.41046 5.52247 -0.350683 # OT
534 170 1 0.41 -2.22618 6.02526 0.0186181 # HT
535 170 1 0.41 -1.29263 4.66125 0.108049 # HT
536 171 2 -0.82 6.28378 1.552 3.31453 # OT
537 171 1 0.41 5.41915 1.74333 3.82952 # HT
538 171 1 0.41 5.99845 1.49667 2.35735 # HT
539 172 2 -0.82 10.0659 10.9325 3.20002 # OT
540 172 1 0.41 9.37538 10.2425 2.83181 # HT
541 172 1 0.41 9.6611 11.887 3.07661 # HT
542 173 2 -0.82 11.3274 -8.73664 -7.54036 # OT
543 173 1 0.41 -12.0704 -8.94198 -8.10477 # HT
544 173 1 0.41 11.0957 -9.53886 -6.9967 # HT
545 174 2 -0.82 -8.83378 7.50931 4.34444 # OT
546 174 1 0.41 -8.65865 6.4868 4.3405 # HT
547 174 1 0.41 -8.04529 7.99638 3.91872 # HT
548 175 2 -0.82 -9.6902 0.661179 11.5608 # OT
549 175 1 0.41 -9.99808 0.179997 -11.8917 # HT
550 175 1 0.41 -8.93801 1.3266 11.8824 # HT
551 176 2 -0.82 -8.30848 -2.38681 -2.53301 # OT
552 176 1 0.41 -7.94711 -1.78004 -3.25457 # HT
553 176 1 0.41 -7.84325 -2.10104 -1.59587 # HT
554 177 2 -0.82 -1.60346 -10.2708 -3.95707 # OT
555 177 1 0.41 -2.33779 -10.9146 -3.53835 # HT
556 177 1 0.41 -0.683692 -10.657 -3.68303 # HT
557 178 2 -0.82 7.9647 -8.19993 -1.8668 # OT
558 178 1 0.41 8.02129 -9.08797 -2.30245 # HT
559 178 1 0.41 8.00648 -7.50272 -2.59838 # HT
560 179 2 -0.82 -4.64224 2.14314 -7.14756 # OT
561 179 1 0.41 -5.28601 2.74353 -7.7116 # HT
562 179 1 0.41 -4.63916 1.22496 -7.56066 # HT
563 180 2 -0.82 -2.48557 7.94642 -5.18397 # OT
564 180 1 0.41 -1.49018 7.77781 -5.3045 # HT
565 180 1 0.41 -2.51385 8.58085 -4.42594 # HT
566 181 2 -0.82 1.43671 -0.756571 2.03726 # OT
567 181 1 0.41 0.705258 -0.267405 2.55119 # HT
568 181 1 0.41 1.13287 -1.75494 2.08351 # HT
569 182 2 -0.82 3.18649 -1.0607 -2.15135 # OT
570 182 1 0.41 2.62138 -0.505617 -1.47011 # HT
571 182 1 0.41 2.75765 -1.9937 -1.95393 # HT
572 183 2 -0.82 -11.768 -11.2727 -4.63317 # OT
573 183 1 0.41 11.981 -10.5836 -4.07351 # HT
574 183 1 0.41 11.8654 -11.7268 -5.31585 # HT
575 184 2 -0.82 4.23865 -11.2858 0.826534 # OT
576 184 1 0.41 3.71242 -12.013 0.336702 # HT
577 184 1 0.41 5.05849 -11.8461 1.24131 # HT
578 185 2 -0.82 -3.96919 -9.87931 2.25434 # OT
579 185 1 0.41 -3.35188 -9.44649 1.57238 # HT
580 185 1 0.41 -3.40358 -10.0785 3.10676 # HT
581 186 2 -0.82 -10.0053 -10.0907 1.97216 # OT
582 186 1 0.41 -9.82467 -10.6523 1.06467 # HT
583 186 1 0.41 -9.43003 -9.30129 1.93628 # HT
584 187 2 -0.82 -0.6537 -1.81759 -1.51582 # OT
585 187 1 0.41 -1.16688 -2.10326 -2.37687 # HT
586 187 1 0.41 0.290144 -2.22817 -1.55103 # HT
587 188 2 -0.82 0.985306 9.00295 -9.16998 # OT
588 188 1 0.41 1.31077 9.93774 -8.9706 # HT
589 188 1 0.41 -0.0758535 8.98959 -8.96388 # HT
590 189 2 -0.82 -6.45253 10.062 3.75254 # OT
591 189 1 0.41 -6.37821 10.343 4.76745 # HT
592 189 1 0.41 -7.21128 10.5823 3.28895 # HT
593 190 2 -0.82 10.3516 5.03044 6.29661 # OT
594 190 1 0.41 10.9346 4.60023 7.05834 # HT
595 190 1 0.41 10.3922 4.38119 5.51193 # HT
596 191 2 -0.82 5.31526 6.57063 2.98595 # OT
597 191 1 0.41 4.97981 7.20577 3.69915 # HT
598 191 1 0.41 6.05342 5.98009 3.36668 # HT
599 192 2 -0.82 7.27347 8.8571 5.01696 # OT
600 192 1 0.41 6.29155 9.03463 4.74987 # HT
601 192 1 0.41 7.49228 7.98756 5.50984 # HT
602 193 2 -0.82 -11.5646 5.65057 3.6265 # OT
603 193 1 0.41 -11.8286 6.42685 2.98664 # HT
604 193 1 0.41 11.9073 4.95956 3.79959 # HT
605 194 2 -0.82 -4.04142 -1.04263 -4.0117 # OT
606 194 1 0.41 -3.37427 -1.79946 -4.00942 # HT
607 194 1 0.41 -4.93867 -1.37711 -4.33308 # HT
608 195 2 -0.82 4.52211 -11.8551 -5.8957 # OT
609 195 1 0.41 3.61496 -11.4416 -5.97225 # HT
610 195 1 0.41 5.1821 -11.1301 -5.57552 # HT
611 196 2 -0.82 9.0097 -10.8878 2.42074 # OT
612 196 1 0.41 9.90698 -10.6957 1.98316 # HT
613 196 1 0.41 8.51008 -10.0298 2.09944 # HT
614 197 2 -0.82 -11.736 2.21796 10.8097 # OT
615 197 1 0.41 -11.5132 1.96489 9.84102 # HT
616 197 1 0.41 -11.2008 1.48002 11.3157 # HT
617 198 2 -0.82 -0.457174 -10.133 -10.2753 # OT
618 198 1 0.41 -0.698143 -10.9426 -9.74098 # HT
619 198 1 0.41 -0.915623 -10.2398 -11.1781 # HT
620 199 2 -0.82 7.18503 6.56141 8.27789 # OT
621 199 1 0.41 7.52667 6.29069 7.29544 # HT
622 199 1 0.41 7.90368 6.63139 8.95598 # HT
623 200 2 -0.82 5.36026 5.60922 11.7344 # OT
624 200 1 0.41 5.57663 5.08031 10.814 # HT
625 200 1 0.41 5.87829 6.48312 11.7402 # HT