LAMMPS data file via write_data, version 18 Jul 2015, timestep = 5000

1429 atoms
20 atom types
961 bonds
21 bond types
514 angles
35 angle types
64 dihedrals
50 dihedral types
5 impropers
6 improper types

-1.2124689999999999e+01 1.2124689999999999e+01 xlo xhi
-1.2124689999999999e+01 1.2124689999999999e+01 ylo yhi
-1.2124689999999999e+01 1.2124689999999999e+01 zlo zhi

Masses

1 1.008
2 15.9994
3 15.9994
4 1.008
5 1.008
6 1.008
7 1.008
8 1.008
9 12.011
10 12.011
11 12.011
12 12.011
13 12.011
14 12.011
15 14.007
16 15.999
17 15.999
18 15.999
19 15.999
20 12.011

Pair Coeffs # lj/charmm/coul/long

1 0 0 0 0
2 0.155425 3.16549 0.155425 3.16549
3 0.0986097 3.11851 0.0986097 3.11851
4 4.0458e-05 0 4.0458e-05 0
5 0.046 0.400014 0.046 0.400014
6 0.022 2.35197 0.022 2.35197
7 0.034 2.38761 0.034 2.38761
8 0.024 2.38761 0.024 2.38761
9 0.11 3.56359 0.11 3.56359
10 0.032 3.56359 0.01 3.38542
11 0.056 3.58141 0.01 3.38542
12 0.056 3.58141 0.01 3.38542
13 0.078 3.63487 0.01 3.38542
14 0.07 3.56359 0.07 3.56359
15 0.2 3.29632 0.2 2.76179
16 0.12 3.02906 0.12 2.49452
17 0.12 3.02906 0.12 3.02906
18 0.12 3.02906 0.12 2.49452
19 0.1521 3.15378 0.1521 3.15378
20 0.07 3.56359 0.07 3.56359

Angle Coeffs # charmm

1 52 108 0 0
2 50 109.5 0 0
3 50 107 0 0
4 33 109.5 30 2.163
5 50 120 0 0
6 50 120 0 0
7 34 123 0 0
8 52 108 0 0
9 33 109.5 30 2.163
10 80 116.5 0 0
11 80 121 0 0
12 58.35 113.5 11.16 2.561
13 26.5 110.1 22.53 2.179
14 35 117 0 0
15 40 118 50 2.388
16 26.5 110.1 22.53 2.179
17 35 111 0 0
18 70 113.5 0 0
19 26.5 110.1 22.53 2.179
20 80 116.5 0 0
21 80 121 0 0
22 35 117 0 0
23 35.5 109 5.4 1.802
24 35.5 109 5.4 1.802
25 35.5 108.4 5.4 1.802
26 51.5 109.5 0 0
27 48 108 0 0
28 37.95 113.24 0 0
29 38.7433 111.727 0 0
30 80 122.5 0 0
31 100 124 70 2.225
32 70 125 20 2.442
33 55 110.5 0 0
34 50 123 210 2.262
35 55 115 0 0

Dihedral Coeffs # charmm

1 0.11 1 0 1
2 0.98 2 180 0
3 1.6 3 180 0
4 0.2 3 0 1
5 0.2 1 180 1
6 0 1 0 1
7 1.8 1 0 1
8 0 1 0 1
9 0 3 0 1
10 0 1 180 1
11 0.38 2 180 0
12 0.59 3 180 0
13 0.19 3 0 1
14 1.6 1 0 1
15 2.5 2 180 0
16 2.5 2 180 1
17 0.19 3 0 1
18 1.6 1 0 1
19 2.5 2 180 0
20 2.5 2 180 1
21 0.2 3 0 1
22 0.3 1 0 1
23 0.35 2 0 0
24 1.76 3 0 0
25 0 1 0 1
26 1.4 1 0 1
27 0 1 0 1
28 0.05 6 180 1
29 2.5 2 180 1
30 2.5 2 180 1
31 2.5 2 180 1
32 0 1 0 1
33 0 3 0 1
34 0.05 6 180 1
35 0.19 3 0 1
36 0.2 3 0 1
37 0.2 3 0 1
38 0 3 0 1
39 0 3 180 1
40 0 1 0 1
41 0 1 0 1
42 0.6 1 0 1
43 0 1 0 1
44 0.19 3 0 1
45 0 6 180 1
46 0 6 180 1
47 0 6 180 1
48 0 6 180 1
49 2.05 2 180 1
50 2.05 2 180 1

Improper Coeffs # harmonic

1 120 0
2 120 0
3 96 0
4 20 0
5 20 0
6 100 0

Atoms # full

615 197 1 4.0999999999999998e-01 -1.0224479209922723e+01 -4.3268807967002054e+00 -1.1573553407667667e+01 0 0 0
1350 442 1 4.0999999999999998e-01 -6.0428166779430583e+00 -3.0402256148582549e+00 -8.9208924962492269e+00 0 0 0
259 78 1 4.0999999999999998e-01 -8.8172603105743192e+00 -2.7945724051285419e+00 -1.1921634849118018e+01 0 0 0
1412 463 2 -8.1999999999999995e-01 -2.3893569060396533e+00 -6.0855924156334797e+00 -7.3886784022115268e+00 0 0 0
1413 463 1 4.0999999999999998e-01 -2.6921753904315682e+00 -5.8048542287332241e+00 -8.3686699184698057e+00 0 0 0
896 291 2 -8.1999999999999995e-01 -6.2538990722355248e+00 -6.4431955188192669e+00 -9.9506455903741529e+00 0 0 0
819 265 1 4.0999999999999998e-01 -1.8570734752525537e+00 -6.4229568714769760e+00 -1.0810406231356689e+01 0 0 1
283 86 1 4.0999999999999998e-01 -2.6237463653742945e+00 -1.3902287551714299e+00 -1.1795427308200363e+01 0 0 0
274 83 1 4.0999999999999998e-01 -7.6057820488921521e+00 -7.0217078484319977e+00 -7.8117474825683724e+00 0 0 0
820 265 1 4.0999999999999998e-01 -1.1719934872123434e+00 -8.0263628133922502e+00 -1.0539198381399487e+01 0 0 0
1105 360 1 4.0999999999999998e-01 -1.5316713490018494e+00 -1.0957816872453355e+01 -1.2010145858740456e+01 0 1 1
131 36 2 -8.1999999999999995e-01 -2.2407383821770988e-01 -8.7685140201460801e+00 -9.0927400079419485e+00 0 0 1
302 93 2 -8.1999999999999995e-01 -7.9936108061206808e+00 -8.6725713456681017e+00 -1.0214899816605694e+01 0 0 0
303 93 1 4.0999999999999998e-01 -7.6498073264811550e+00 -7.7235806619245375e+00 -9.9485007210514773e+00 0 0 0
304 93 1 4.0999999999999998e-01 -7.3313691444404334e+00 -9.1975264691086167e+00 -9.6488536630461823e+00 0 0 0
1351 442 1 4.0999999999999998e-01 -6.7377460139978824e+00 -4.4445487898341982e+00 -9.1930663585158499e+00 0 0 0
1342 439 1 4.0999999999999998e-01 -5.9750797588437452e+00 -9.9790801928559567e+00 -7.7423289809532685e+00 0 0 0
1409 462 2 -8.1999999999999995e-01 -9.5949458702435475e+00 -1.2037382619363656e+01 -1.1428415754228331e+01 0 1 0
473 150 2 -8.1999999999999995e-01 -8.1090188416075542e+00 -1.1829318584643511e+00 -8.8926165335024887e+00 0 0 0
474 150 1 4.0999999999999998e-01 -7.7631994895923127e+00 -2.1610032741776846e+00 -8.8021829341755637e+00 0 0 0
1366 447 1 4.0999999999999998e-01 -1.1119007784579004e+01 -8.5714239625687156e+00 -1.1891625346342105e+01 1 0 1
132 36 1 4.0999999999999998e-01 -2.7429700149873232e-01 -8.2568873801561615e+00 -8.1843293884302373e+00 0 0 1
897 291 1 4.0999999999999998e-01 -5.4753472999283739e+00 -7.0344647832267242e+00 -9.6513927723510466e+00 0 0 1
1141 372 1 4.0999999999999998e-01 -5.2253790166546610e+00 -3.9775011343553235e+00 -1.1940244519984629e+01 0 0 0
818 265 2 -8.1999999999999995e-01 -1.3116125750449665e+00 -7.2240282509934088e+00 -1.1186173273197152e+01 0 0 0
730 235 1 4.0999999999999998e-01 -3.7275831656721379e+00 -1.1480797252572183e+01 -9.2496301449486609e+00 0 1 0
983 320 2 -8.1999999999999995e-01 -6.2311814137133705e+00 -1.0304313933521918e+01 -1.2052677972039708e+01 0 0 0
88 21 1 4.0999999999999998e-01 -9.7943222922501452e+00 -8.4328011255723894e+00 -9.9624675028944889e+00 0 0 1
985 320 1 4.0999999999999998e-01 -6.3123279593977326e+00 -1.0767375603358964e+01 -1.1115185387684731e+01 0 0 0
739 238 1 4.0999999999999998e-01 -1.1779737209106662e+01 -6.2493724433957674e+00 -1.0438410219319691e+01 1 0 0
1008 328 1 4.0999999999999998e-01 -2.6772195652248931e+00 -9.4619227956925798e+00 -7.7365408412689476e+00 0 0 0
614 197 2 -8.1999999999999995e-01 -9.2867351993524636e+00 -4.2811077102070527e+00 -1.1997619043490209e+01 0 0 0
1332 436 1 4.0999999999999998e-01 -8.7849372414518587e+00 -1.1280022228545374e+01 -7.3711179408253260e+00 0 0 0
898 291 1 4.0999999999999998e-01 -6.4698359249147028e+00 -6.4172857959602840e+00 -1.1004565648963874e+01 0 0 1
606 194 1 4.0999999999999998e-01 -2.5854915941113721e-01 -3.1540084306518996e+00 -1.0107667422809886e+01 0 0 1
607 194 1 4.0999999999999998e-01 -1.3930914627975159e+00 -1.9972776255078328e+00 -9.9268773255966707e+00 0 0 1
1139 372 2 -8.1999999999999995e-01 -5.9137592694205114e+00 -3.2035955872420723e+00 -1.1878711351744151e+01 0 0 0
475 150 1 4.0999999999999998e-01 -8.5504671096975713e+00 -9.6389705411715998e-01 -8.0019627333482752e+00 0 0 0
36 4 1 4.0999999999999998e-01 -1.1476960851891269e+01 -6.0542274084634595e+00 -7.9271243259429980e+00 0 0 0
258 78 1 4.0999999999999998e-01 -8.0020802451037678e+00 -1.6906674805172919e+00 -1.1067722361886718e+01 0 0 0
257 78 2 -8.1999999999999995e-01 -8.6070315659758982e+00 -1.7562349314126680e+00 -1.1888250498245862e+01 0 0 0
732 236 1 4.0999999999999998e-01 -3.1165612672920813e+00 -8.6162006042790704e+00 -1.1834412214092829e+01 0 0 0
1341 439 1 4.0999999999999998e-01 -4.9565925951713012e+00 -9.6415446170776171e+00 -9.1041754640978407e+00 0 0 0
86 21 2 -8.1999999999999995e-01 -1.0761024792379132e+01 -8.5058368569605278e+00 -1.0240351341955373e+01 0 0 1
1340 439 2 -8.1999999999999995e-01 -5.8808584474353287e+00 -9.7429924421671092e+00 -8.7374197980485864e+00 0 0 0
1349 442 2 -8.1999999999999995e-01 -6.8857884479803095e+00 -3.5812196108193319e+00 -8.6541406444601066e+00 0 0 0
1172 383 2 -8.1999999999999995e-01 -4.6051781336923883e+00 -2.6115968429606951e+00 -9.3974265554272840e+00 0 0 0
1173 383 1 4.0999999999999998e-01 -5.0709095172570011e+00 -2.5026093784315866e+00 -1.0300952983477089e+01 0 0 0
1174 383 1 4.0999999999999998e-01 -3.6698817177746648e+00 -2.1838747358287440e+00 -9.3758002200364903e+00 0 0 0
1410 462 1 4.0999999999999998e-01 -9.4110509763656935e+00 -1.1088115924682116e+01 -1.1642828368210813e+01 0 1 0
737 238 2 -8.1999999999999995e-01 -1.1403202776903232e+01 -5.3029940028742724e+00 -1.0628417099286503e+01 1 0 0
744 240 1 4.0999999999999998e-01 -9.9890651938457378e+00 -9.1662052988409148e-01 -9.3398362093553029e+00 0 0 1
1295 424 2 -8.1999999999999995e-01 -2.5404494947146086e+00 -5.2143744214534671e+00 -9.9088561165848201e+00 0 0 0
1296 424 1 4.0999999999999998e-01 -3.5191127015644086e+00 -5.1917221427471505e+00 -1.0393379532178534e+01 0 0 0
728 235 2 -8.1999999999999995e-01 -3.0901584472345993e+00 -1.0645616042546125e+01 -9.1746281205217635e+00 0 0 0
616 197 1 4.0999999999999998e-01 -8.7563173317003695e+00 -5.1940157057880807e+00 -1.1915798489653985e+01 0 0 0
1297 424 1 4.0999999999999998e-01 -2.2468220153532568e+00 -4.2391029791630057e+00 -9.6680822581395240e+00 0 0 0
1104 360 1 4.0999999999999998e-01 -6.2618905579717488e-01 -1.0006974176570232e+01 -1.0935190787574118e+01 0 1 1
87 21 1 4.0999999999999998e-01 -1.1166911985507204e+01 -9.2022165703341905e+00 -9.6298945440779544e+00 0 1 1
743 240 2 -8.1999999999999995e-01 -1.0892721037805069e+01 -5.1925090498864890e-01 -9.3441438867502402e+00 1 0 0
1392 456 1 4.0999999999999998e-01 -4.4719781503134470e+00 -2.8246320095126287e+00 -7.5186930698456456e+00 0 0 0
605 194 2 -8.1999999999999995e-01 -1.0151167608202794e+00 -2.8675998969974050e+00 -9.5496767095678923e+00 0 0 1
1103 360 2 -8.1999999999999995e-01 -1.5043124887190673e+00 -1.0032783180661474e+01 -1.1495433981762970e+01 0 1 1
281 86 2 -8.1999999999999995e-01 -2.4377588812650859e+00 -8.8759230825614610e-01 -1.0929210448208075e+01 0 0 0
729 235 1 4.0999999999999998e-01 -2.6082450278303217e+00 -1.0477540197872441e+01 -1.0041408886372039e+01 0 1 0
460 145 1 4.0999999999999998e-01 -1.1958852690732320e+01 -1.7833871045370215e+00 -1.0541612865821483e+01 1 0 0
426 134 1 4.0999999999999998e-01 -1.9812213806330570e-01 -1.8662909808980310e+00 -7.9471377083518222e+00 0 0 0
1414 463 1 4.0999999999999998e-01 -2.3613191647509391e+00 -7.0698557498075720e+00 -7.4078936055224922e+00 0 0 0
984 320 1 4.0999999999999998e-01 -5.4758707252824079e+00 -9.5886943622549783e+00 -1.2096307392688095e+01 0 0 0
659 212 2 -8.1999999999999995e-01 -6.7219296136897144e+00 -9.4440991121241613e-01 -5.1913631252411800e+00 0 0 0
1391 456 2 -8.1999999999999995e-01 -3.9143557525739001e+00 -2.4940364296229971e+00 -6.6596905422020036e+00 0 0 0
272 83 2 -8.1999999999999995e-01 -7.5575233840264140e+00 -7.2612198824323135e+00 -6.8101682100608718e+00 0 0 0
660 212 1 4.0999999999999998e-01 -7.1347175509803078e+00 -1.9040598226901401e-01 -4.6587523442802308e+00 0 0 0
64 13 1 4.0999999999999998e-01 -3.7161497288739307e+00 -3.5788959664515163e-01 -3.7170581306490464e+00 0 0 0
1107 361 1 4.0999999999999998e-01 -8.1810265677585168e+00 -4.3190377071088877e+00 -6.8997103849549326e+00 0 0 0
1182 386 1 4.0999999999999998e-01 -1.1796457372505841e+01 -1.9852907769301148e-01 -4.7625838912391414e+00 0 0 0
543 173 1 4.0999999999999998e-01 -1.1498146666071881e+01 -4.6261872118158811e+00 -5.6316333102650633e+00 1 0 0
661 212 1 4.0999999999999998e-01 -7.1978639163804576e+00 -1.0295416139383962e+00 -6.1273898463587706e+00 0 0 0
540 172 1 4.0999999999999998e-01 -9.7389110322611838e+00 -2.0453923359877755e+00 -3.9884440300579769e+00 0 0 0
365 114 2 -8.1999999999999995e-01 -3.3764950534071740e+00 -7.0798520017541327e+00 -3.2567499557841026e+00 0 0 0
526 167 1 4.0999999999999998e-01 -9.1927074512887046e+00 -2.4624146298502425e+00 -6.4217185120058726e+00 0 0 0
367 114 1 4.0999999999999998e-01 -3.2616211823371093e+00 -6.0788094829201418e+00 -3.1742018942392454e+00 0 0 0
250 75 1 4.0999999999999998e-01 -5.4589790781752141e+00 -4.4357226425044427e-01 -6.7657572029271913e+00 0 0 0
1331 436 2 -8.1999999999999995e-01 -9.4876059237518593e+00 -1.1002206711296951e+01 -6.7079117751358197e+00 0 0 0
35 4 2 -8.1999999999999995e-01 -1.0830208603202758e+01 -6.0346488317677585e+00 -7.1051745530280268e+00 1 0 0
539 172 2 -8.1999999999999995e-01 -1.0450824184838911e+01 -1.3540036837262990e+00 -4.2120496766957976e+00 0 0 0
541 172 1 4.0999999999999998e-01 -1.1266497251142733e+01 -1.3319956354674791e+00 -3.6351883112739394e+00 0 0 0
1108 361 1 4.0999999999999998e-01 -9.7090718803463467e+00 -4.9264720901599395e+00 -6.8084263700672709e+00 0 0 0
273 83 1 4.0999999999999998e-01 -6.5650401606135631e+00 -7.1909063167919944e+00 -6.5620370972488207e+00 0 0 0
1379 452 2 -8.1999999999999995e-01 -5.4516080530710092e+00 -9.8653119533360929e+00 -5.7471748715068838e+00 0 0 0
1196 391 2 -8.1999999999999995e-01 -6.2061197642265125e+00 -3.7093001488257147e+00 -3.7474432345914868e+00 0 0 0
594 190 1 4.0999999999999998e-01 -9.2007273371922267e+00 -9.2275117211565796e+00 -3.9524381789358438e+00 0 0 0
148 41 1 4.0999999999999998e-01 -6.1467243185824627e-01 -9.7838315482981599e+00 -4.7887310056953973e+00 0 0 0
1110 362 1 4.0999999999999998e-01 -8.8554672510764849e+00 -8.0167390865474246e+00 -6.6791812523232874e+00 0 0 0
946 307 1 4.0999999999999998e-01 -4.1495421245016715e+00 -7.3797812339397044e+00 -6.5914624383675360e+00 0 0 0
593 190 2 -8.1999999999999995e-01 -8.3467746243992362e+00 -9.6891020523715596e+00 -3.7027785271070139e+00 0 0 0
595 190 1 4.0999999999999998e-01 -8.5168704381915408e+00 -1.0673614168280846e+01 -3.7871743121377826e+00 0 0 0
525 167 1 4.0999999999999998e-01 -9.3987308622738013e+00 -1.1944123601951375e+00 -5.5053426785899298e+00 0 0 0
863 280 2 -8.1999999999999995e-01 -7.2319313105613006e+00 -6.5535753315905563e+00 -3.7701916874128552e+00 0 0 0
945 307 1 4.0999999999999998e-01 -4.7833817037296145e+00 -7.3942371958708097e+00 -4.9798178130135744e+00 0 0 0
865 280 1 4.0999999999999998e-01 -6.7202560080537070e+00 -5.6942059746370459e+00 -3.5929835163604298e+00 0 0 0
37 4 1 4.0999999999999998e-01 -1.0484693123602868e+01 -7.0214224915256906e+00 -6.9584794587582515e+00 1 0 0
117 31 1 4.0999999999999998e-01 -1.3429997446634416e+00 -1.1580702219703966e+01 -5.6086798228998971e+00 0 0 0
800 259 2 -8.1999999999999995e-01 -8.8151535569657469e+00 -3.6614522052553835e+00 -3.7043277714461302e+00 1 0 0
904 293 1 4.0999999999999998e-01 -3.8933267568718097e+00 -5.0138812078940349e+00 -4.6778131753636689e+00 0 0 0
146 41 2 -8.1999999999999995e-01 -6.6792102562576350e-01 -1.0078081482079684e+01 -5.7815141880810623e+00 0 0 0
1380 452 1 4.0999999999999998e-01 -6.2104659212155866e+00 -9.3919490319982675e+00 -5.2257208464255491e+00 0 0 0
988 321 1 4.0999999999999998e-01 -2.8586948533995455e+00 -1.2129262411658648e+00 -6.7999179009513622e+00 0 0 0
801 259 1 4.0999999999999998e-01 -7.7991211603557202e+00 -3.7779766303502313e+00 -3.7242587582955946e+00 1 0 0
944 307 2 -8.1999999999999995e-01 -4.8750077795971851e+00 -7.0676170741066509e+00 -5.9322464767879328e+00 0 0 0
1106 361 2 -8.1999999999999995e-01 -9.0706101796535652e+00 -4.2248366205177605e+00 -6.3755575334514099e+00 0 0 0
1381 452 1 4.0999999999999998e-01 -5.5267280105592826e+00 -1.0888286558724808e+01 -5.4450989382469226e+00 0 0 0
902 293 2 -8.1999999999999995e-01 -3.0062515742386720e+00 -4.7392787761657713e+00 -5.0526457734282557e+00 0 0 0
1109 362 2 -8.1999999999999995e-01 -9.8008335403961144e+00 -8.4185647823415604e+00 -6.6088484421002835e+00 0 0 0
650 209 2 -8.1999999999999995e-01 -1.1776387991995291e+01 -1.0196240919506250e+01 -2.5009924540662927e+00 0 0 0
986 321 2 -8.1999999999999995e-01 -2.4333572152682104e+00 -2.7285365990406246e-01 -6.8099341956762114e+00 0 0 0
1165 380 1 4.0999999999999998e-01 -1.1344662256313359e+01 -1.1062890749362845e+01 -5.3241708033199737e+00 0 0 0
864 280 1 4.0999999999999998e-01 -7.0991845495920973e+00 -6.8793802687791130e+00 -4.7432827287222423e+00 0 0 0
802 259 1 4.0999999999999998e-01 -9.0632244956592025e+00 -3.9511886261530473e+00 -4.6340037120425039e+00 1 0 0
1333 436 1 4.0999999999999998e-01 -9.9956621173576714e+00 -1.1882613209620834e+01 -6.8361187286002361e+00 0 0 0
91 22 1 4.0999999999999998e-01 -6.3795305953735779e+00 -1.2040883875635728e+00 -3.0256151711370345e+00 0 0 0
524 167 2 -8.1999999999999995e-01 -9.0353002706148793e+00 -1.4481712987324564e+00 -6.4405715829769434e+00 0 0 0
1393 456 1 4.0999999999999998e-01 -3.6345379910721034e+00 -3.2132029993479545e+00 -5.9894205223362382e+00 0 0 0
1198 391 1 4.0999999999999998e-01 -6.0114452472716220e+00 -3.0082484801418694e+00 -4.4587655758230831e+00 0 0 0
1197 391 1 4.0999999999999998e-01 -5.8426814712492288e+00 -3.4777733129974844e+00 -2.8019920407271317e+00 0 0 0
903 293 1 4.0999999999999998e-01 -2.8293587789061379e+00 -5.4438598156022424e+00 -5.7759348315371017e+00 0 0 0
1009 328 1 4.0999999999999998e-01 -1.9006355306313947e+00 -9.0702800612049508e+00 -6.3790936639622071e+00 0 0 0
1111 362 1 4.0999999999999998e-01 -9.9235238156808432e+00 -9.4367498309396591e+00 -6.5024580511245187e+00 0 0 0
427 134 1 4.0999999999999998e-01 -1.3874297409171490e-01 -5.7011900376139579e-01 -6.8816934022637106e+00 0 0 0
1007 328 2 -8.1999999999999995e-01 -2.5305721291459791e+00 -8.6963226571974968e+00 -7.0783376601532293e+00 0 0 0
93 23 1 4.0999999999999998e-01 -5.4536143182982125e-02 -6.6800561070228304e-01 -4.0626545666331761e+00 0 0 0
690 222 1 4.0999999999999998e-01 -7.5014455536969802e+00 -9.8513609476143689e+00 -2.5526755629185245e+00 0 1 0
652 209 1 4.0999999999999998e-01 -1.0993707175676594e+01 -1.0873099048561706e+01 -2.4364358833492585e+00 0 0 0
477 151 1 4.0999999999999998e-01 -8.5865964800908301e-01 -5.4655545784379633e+00 -7.0112152049326140e+00 0 0 0
492 156 1 4.0999999999999998e-01 -2.6168078394431453e+00 -9.1358383160957111e+00 9.1904817832774266e-01 0 0 0
144 40 1 4.0999999999999998e-01 -4.8891132463163336e+00 -2.0780917683213498e+00 1.5315501349142371e+00 0 0 0
123 33 1 4.0999999999999998e-01 -1.0672072660883547e+01 -5.4982756645528736e+00 3.3294273102332295e-02 0 0 0
857 278 2 -8.1999999999999995e-01 -5.7574653575799033e+00 -7.8426074612138184e+00 -1.0739248127879588e+00 0 0 0
901 292 1 4.0999999999999998e-01 -1.2507395000907062e+00 -7.1418339554520003e+00 -5.2702824881906829e-01 0 0 0
520 165 1 4.0999999999999998e-01 -4.7221777179008200e+00 -8.2597876283326581e+00 4.6933456908984111e-01 0 0 0
1001 326 2 -8.1999999999999995e-01 -1.2549872011246239e+00 -1.2054453056770830e+01 -1.5717007313105682e+00 0 1 0
1243 406 1 4.0999999999999998e-01 -3.7185812101974323e+00 -3.8901105661907072e+00 -1.6403225900515099e+00 0 0 0
1244 407 2 -8.1999999999999995e-01 -8.5229721552844637e+00 -4.0043352573750850e+00 -3.9741061627322077e-04 0 0 0
1330 435 1 4.0999999999999998e-01 -2.3927069947120945e+00 -5.5391662329480811e+00 -1.3669807771127607e+00 0 0 0
1242 406 1 4.0999999999999998e-01 -4.4595929479915801e+00 -3.5508008299022937e+00 -3.0450609427511111e-01 0 0 0
486 154 1 4.0999999999999998e-01 -1.1781469930942714e+01 -7.4619687200461620e+00 1.6018963890757338e+00 1 0 0
858 278 1 4.0999999999999998e-01 -5.1627620441077680e+00 -7.5828919474909968e+00 -1.9038070469219330e+00 0 0 0
900 292 1 4.0999999999999998e-01 -2.8396364016423958e+00 -7.3846737550763866e+00 1.3158290288374438e-01 0 0 0
1232 403 2 -8.1999999999999995e-01 -2.1334810696334712e+00 -1.2650638915369575e-01 1.9167536170852459e+00 0 0 0
691 222 1 4.0999999999999998e-01 -6.3634326362451725e+00 -1.0892111753923794e+01 -1.8193872786353029e+00 0 1 0
1241 406 2 -8.1999999999999995e-01 -4.5584683416092240e+00 -3.3933425068950021e+00 -1.3282607040346917e+00 0 0 0
872 283 2 -8.1999999999999995e-01 -8.8251968477943912e+00 -7.3759970236665300e+00 2.1647160353801800e+00 0 0 0
464 147 2 -8.1999999999999995e-01 -9.5903972160800706e+00 -9.5055639316041596e+00 1.9925392803206451e-01 0 0 0
657 211 1 4.0999999999999998e-01 -4.7406929727626865e+00 -1.1437437803588427e+01 2.0962155744027422e+00 0 0 0
491 156 2 -8.1999999999999995e-01 -1.6997128737774350e+00 -9.5525990290493841e+00 8.0915280018311653e-01 0 0 0
122 33 2 -8.1999999999999995e-01 -1.0678753791397442e+01 -5.7381492785299821e+00 1.0145057171530418e+00 0 0 0
90 22 1 4.0999999999999998e-01 -5.1964725166596324e+00 -1.9596071828557962e+00 -1.9865621532834312e+00 0 0 0
1218 398 1 4.0999999999999998e-01 -1.0392038910899673e+01 -7.2439026262276816e+00 -1.7687452616672394e+00 0 0 0
465 147 1 4.0999999999999998e-01 -9.2297616082624270e+00 -8.6673519019383267e+00 7.6097356459079735e-01 0 0 0
1328 435 2 -8.1999999999999995e-01 -2.2202756459899082e+00 -4.6693054644782510e+00 -1.8755585112475639e+00 0 0 0
721 232 1 4.0999999999999998e-01 -9.8532397680796038e+00 -1.9698535528422805e+00 1.6287259578586097e+00 0 0 0
466 147 1 4.0999999999999998e-01 -8.8994302188351533e+00 -9.9410306488824531e+00 -4.3957112723768099e-01 0 0 0
139 38 1 4.0999999999999998e-01 -1.1366762708756038e+01 -2.9923480015246908e+00 -1.3342712852250471e+00 0 0 0
1219 398 1 4.0999999999999998e-01 -1.0607174304291629e+01 -8.4104704068827036e+00 -6.4010763984083918e-01 0 0 0
124 33 1 4.0999999999999998e-01 -1.1221939152841243e+01 -4.9768357783722950e+00 1.4915035662965075e+00 0 0 0
590 189 2 -8.1999999999999995e-01 -4.6964502222216451e+00 -3.7436247068539963e+00 1.4102978279564073e+00 0 0 0
591 189 1 4.0999999999999998e-01 -3.7637025601598131e+00 -3.8796134767956527e+00 1.8037709267979061e+00 0 0 0
592 189 1 4.0999999999999998e-01 -5.3244451854801218e+00 -4.5019408549503002e+00 1.5421544918751349e+00 0 0 0
874 283 1 4.0999999999999998e-01 -9.5830925822320818e+00 -6.7136956304424729e+00 1.8511882897300052e+00 0 0 0
306 94 1 4.0999999999999998e-01 -2.0233951370008865e+00 -4.8586956431331538e+00 2.2896616757619337e+00 0 0 0
1245 407 1 4.0999999999999998e-01 -7.8712340983519242e+00 -4.7758163262244508e+00 2.3122684139620439e-01 0 0 0
572 183 2 -8.1999999999999995e-01 -2.1780370898974710e-01 -3.8602878661281572e+00 -4.6149935681399766e-02 0 0 0
1096 357 1 4.0999999999999998e-01 -9.4718804817822360e+00 -5.2519121272133278e+00 -2.1223637262921429e+00 0 0 0
1130 369 2 -8.1999999999999995e-01 -6.5123254049829713e+00 -6.1825618009745105e+00 8.3912796598919892e-01 0 0 0
720 232 1 4.0999999999999998e-01 -8.9677769527669753e+00 -1.7158096976725437e+00 2.6557548336397113e-01 0 0 0
689 222 2 -8.1999999999999995e-01 -7.0251237863434799e+00 -1.0091712468688899e+01 -1.6348163020541298e+00 0 1 0
1131 369 1 4.0999999999999998e-01 -7.2221700861731950e+00 -6.6727227702598260e+00 1.4063368228863027e+00 0 0 0
518 165 2 -8.1999999999999995e-01 -4.0393658153432286e+00 -8.4841406536142863e+00 1.2290899045495569e+00 0 0 0
899 292 2 -8.1999999999999995e-01 -2.3076145034017150e+00 -7.0260379270909823e+00 -6.6207062692057184e-01 0 0 0
1132 369 1 4.0999999999999998e-01 -6.3370651739807533e+00 -6.9393006580296719e+00 1.2163356359123587e-01 0 0 0
859 278 1 4.0999999999999998e-01 -6.2555245035045006e+00 -8.7387448792411035e+00 -1.2666212126304981e+00 0 0 0
719 232 2 -8.1999999999999995e-01 -9.5230871357516946e+00 -1.2385092877586530e+00 9.5852281341615597e-01 0 0 0
1246 407 1 4.0999999999999998e-01 -9.3692665665904755e+00 -4.4737190408835286e+00 -2.6173884228392763e-01 0 0 0
651 209 1 4.0999999999999998e-01 -1.1524460307712118e+01 -9.2243048954789604e+00 -2.3668925459745864e+00 1 0 0
300 92 1 4.0999999999999998e-01 -1.1290043942391428e+01 -8.9202608837360697e-01 -1.4635414204259439e-01 0 0 0
305 94 2 -8.1999999999999995e-01 -2.1514309049513649e+00 -3.8747789553380612e+00 2.1138880961745956e+00 0 0 0
1217 398 2 -8.1999999999999995e-01 -1.1110497490269561e+01 -7.8701624695253072e+00 -1.3418788795362149e+00 0 0 0
1002 326 1 4.0999999999999998e-01 -1.4072115060264867e+00 -1.2060386974351035e+01 -5.7165719133597970e-01 0 1 0
299 92 2 -8.1999999999999995e-01 -1.1771235908382792e+01 -1.6454821379849796e+00 -6.5811274335836190e-01 0 0 0
519 165 1 4.0999999999999998e-01 -4.5175577009149706e+00 -9.2698687557850263e+00 1.7221632120120269e+00 0 0 0
89 22 2 -8.1999999999999995e-01 -5.7850669907203889e+00 -1.1223086917650917e+00 -2.2130258587693787e+00 0 0 0
307 94 1 4.0999999999999998e-01 -1.5920188081111650e+00 -3.6726850327949152e+00 1.2447821751572892e+00 0 0 0
493 156 1 4.0999999999999998e-01 -1.0440655898852167e+00 -8.8289147402960975e+00 5.5849004337161090e-01 0 0 0
145 40 1 4.0999999999999998e-01 -3.6261458457707261e+00 -9.0250769463032543e-01 1.6042600978261023e+00 0 0 0
1313 430 2 -8.1999999999999995e-01 -9.3470102878350414e-01 -1.1912939676247998e+01 1.4464250002830417e+00 0 0 0
1127 368 2 -8.1999999999999995e-01 -9.7569225425154755e+00 -1.1933844914117042e+01 -2.2708139524342754e+00 0 0 0
1094 357 2 -8.1999999999999995e-01 -9.1825438596594768e+00 -6.1923618544093086e+00 -1.8715477615239002e+00 0 0 0
137 38 2 -8.1999999999999995e-01 -1.1032213197306554e+01 -3.9481107124753039e+00 -1.5883884240825625e+00 0 0 0
1329 435 1 4.0999999999999998e-01 -1.3750953416724090e+00 -4.2895477105148316e+00 -1.4398069789205374e+00 0 0 0
143 40 2 -8.1999999999999995e-01 -4.6477155908309795e+00 -1.0888415910015414e+00 1.7566241026854086e+00 0 0 0
1314 430 1 4.0999999999999998e-01 -1.3146028765343909e+00 -1.0972920978905377e+01 1.1532319273098561e+00 0 0 0
628 201 1 4.0999999999999998e-01 -1.2109403876589031e+01 -9.3765567895672213e+00 2.3536911646624228e+00 1 0 0
1204 393 1 4.0999999999999998e-01 -1.2111701714681690e+01 -5.0567278397427913e+00 -1.9885346015160297e+00 0 0 0
1339 438 1 4.0999999999999998e-01 -5.3415417178679094e+00 -1.0461227790641212e-02 8.9544484987172146e-01 0 0 0
1338 438 1 4.0999999999999998e-01 -5.8611820292408723e+00 -1.4975967171246690e-01 -7.2780807769592937e-01 0 0 0
366 114 1 4.0999999999999998e-01 -3.0033175083560746e+00 -7.3619080687586882e+00 -2.3231591123103512e+00 0 0 0
138 38 1 4.0999999999999998e-01 -1.0314834201859535e+01 -3.7304389051932194e+00 -2.2680070963420760e+00 0 0 0
1095 357 1 4.0999999999999998e-01 -8.2960135497817120e+00 -6.3566170350401343e+00 -2.3589611937133386e+00 0 0 0
1234 403 1 4.0999999999999998e-01 -1.2383316023565025e+00 -4.8913105666914702e-01 2.3455037890384585e+00 0 0 0
1080 352 1 4.0999999999999998e-01 -8.1289168314177598e+00 -1.3594733484425801e+00 2.4116669720547237e+00 0 0 0
1400 459 2 -8.1999999999999995e-01 -9.0280324920214614e+00 -4.3408820304661724e+00 4.5203875166035710e+00 0 0 0
398 125 2 -8.1999999999999995e-01 -1.1487464978826280e+01 -5.9020345561715821e+00 4.2667716846567680e+00 0 0 0
656 211 2 -8.1999999999999995e-01 -4.9125045034831540e+00 -1.0598291581528326e+01 2.6260226187501585e+00 0 0 0
684 220 1 4.0999999999999998e-01 -5.8545381329424222e+00 -8.8019768594115400e-01 4.2392881476254871e+00 0 0 0
1401 459 1 4.0999999999999998e-01 -8.0599537114100173e+00 -4.4815575024065222e+00 4.2981381021615839e+00 0 0 0
873 283 1 4.0999999999999998e-01 -8.9018145956465968e+00 -7.7270709775984665e+00 3.1408024782641264e+00 0 0 0
360 112 1 4.0999999999999998e-01 -8.6536050333023855e+00 -9.1744663470935102e+00 5.3607333439353875e+00 0 0 0
1166 381 2 -8.1999999999999995e-01 -3.0276260773016577e+00 -3.0635579667095442e-01 6.1957036923460524e+00 0 0 0
943 306 1 4.0999999999999998e-01 -8.1676042174255166e+00 -1.1623907329265559e+00 4.9617157173681434e+00 0 0 0
399 125 1 4.0999999999999998e-01 -1.2086872529797965e+01 -5.5347662976258540e+00 3.5272224849781608e+00 0 0 0
170 49 2 -8.1999999999999995e-01 -1.1668088811958288e+01 -1.1413141689446590e+01 6.7298698688919858e+00 0 1 0
927 301 1 4.0999999999999998e-01 -5.4223682556651234e+00 -7.5011117264963874e+00 5.4737933194728203e+00 0 0 0
380 119 2 -8.1999999999999995e-01 -1.3570023950872740e+00 -9.7914592506562173e+00 5.3671394039392029e+00 0 0 0
998 325 2 -8.1999999999999995e-01 -1.0130422500929885e+01 -1.2032375011130522e+01 3.1690643950267745e+00 0 0 0
359 112 2 -8.1999999999999995e-01 -8.9218441027077962e+00 -8.6377547137676842e+00 4.5176533636673897e+00 0 0 0
288 88 1 4.0999999999999998e-01 -4.3659394730779683e-01 -6.2293539010715220e+00 6.7258365015739177e+00 0 0 0
1133 370 2 -8.1999999999999995e-01 -7.6359553218060396e+00 -1.1047731299560034e+01 3.5925466874585754e+00 0 0 0
231 69 1 4.0999999999999998e-01 -1.0045325954464776e+01 -5.8318658920569066e-01 4.2101061181020896e+00 1 0 0
232 69 1 4.0999999999999998e-01 -1.1480052939551687e+01 -3.1561957713195310e-01 3.3930442714879927e+00 1 0 0
1167 381 1 4.0999999999999998e-01 -2.7484299077226249e+00 -1.2514608512879783e+00 6.3880351958847301e+00 0 0 0
942 306 1 4.0999999999999998e-01 -8.7173830265129943e+00 -3.1441016628408580e-01 6.3128538037414312e+00 0 0 0
310 95 1 4.0999999999999998e-01 -7.3970563296686294e+00 -1.0052403308558377e+01 7.1426724985006782e+00 0 1 0
825 267 1 4.0999999999999998e-01 -5.0194305170351938e-01 -1.1855820395148697e+01 7.1108502376580329e+00 0 0 0
308 95 2 -8.1999999999999995e-01 -8.1252086374523049e+00 -1.0240856457110249e+01 6.4667709879492437e+00 0 0 0
626 201 2 -8.1999999999999995e-01 -1.1968168235975112e+01 -1.0276662712870372e+01 2.8765921223513029e+00 1 0 0
1422 466 1 4.0999999999999998e-01 -4.6747960672478595e+00 -5.3182951617318013e+00 6.0443112500927381e+00 0 0 0
361 112 1 4.0999999999999998e-01 -9.1459215025163143e+00 -9.2403407412412335e+00 3.7400030674889906e+00 0 0 0
611 196 2 -8.1999999999999995e-01 -1.8731797573857945e+00 -3.3469429504762318e+00 6.6041788051083481e+00 0 0 0
612 196 1 4.0999999999999998e-01 -1.7081256294924190e+00 -4.2974099389913105e+00 6.9737150109885011e+00 0 0 0
613 196 1 4.0999999999999998e-01 -1.2633629547283789e+00 -3.3256965674548815e+00 5.7245506534823889e+00 0 0 0
1006 327 1 4.0999999999999998e-01 -6.9117747601989317e+00 -5.9440341959055099e+00 6.9346166349505314e+00 1 0 0
750 242 1 4.0999999999999998e-01 -5.1738318149583415e+00 -3.5858923328321421e+00 2.9488443672241846e+00 0 0 0
1135 370 1 4.0999999999999998e-01 -8.5683259684181561e+00 -1.1490358525669784e+01 3.3489843651957854e+00 0 0 0
751 242 1 4.0999999999999998e-01 -5.4376314645303800e+00 -4.0155726064298856e+00 4.5592134065970402e+00 0 0 0
1421 466 2 -8.1999999999999995e-01 -4.4671469775554113e+00 -4.3161765223510749e+00 5.8160216244370559e+00 0 0 0
1176 384 1 4.0999999999999998e-01 -5.1370945642863539e+00 -9.6017354138124560e+00 7.2184688733701696e+00 0 0 0