LAMMPS data file via write_data, version 18 Jul 2015, timestep = 5000

        1429  atoms
          20  atom types
         961  bonds
          21  bond types
         514  angles
          35  angle types
          64  dihedrals
          50  dihedral types
           5  impropers
           6  improper types

   -12.12469     12.12469 xlo xhi
   -12.12469     12.12469 ylo yhi
   -12.12469     12.12469 zlo zhi

Masses

       1      1.008  
       2    15.9994  
       3    15.9994  
       4      1.008  
       5      1.008  
       6      1.008  
       7      1.008  
       8      1.008  
       9     12.011  
      10     12.011  
      11     12.011  
      12     12.011  
      13     12.011  
      14     12.011  
      15     14.007  
      16     15.999  
      17     15.999  
      18     15.999  
      19     15.999  
      20     12.011  

Pair Coeffs

       1          0          0          0          0  
       2   0.155425    3.16549   0.155425    3.16549  
       3  0.0986097    3.11851  0.0986097    3.11851  
       4 4.0458e-05          0 4.0458e-05          0  
       5      0.046   0.400014      0.046   0.400014  
       6      0.022    2.35197      0.022    2.35197  
       7      0.034    2.38761      0.034    2.38761  
       8      0.024    2.38761      0.024    2.38761  
       9       0.11    3.56359       0.11    3.56359  
      10      0.032    3.56359       0.01    3.38542  
      11      0.056    3.58141       0.01    3.38542  
      12      0.056    3.58141       0.01    3.38542  
      13      0.078    3.63487       0.01    3.38542  
      14       0.07    3.56359       0.07    3.56359  
      15        0.2    3.29632        0.2    2.76179  
      16       0.12    3.02906       0.12    2.49452  
      17       0.12    3.02906       0.12    3.02906  
      18       0.12    3.02906       0.12    2.49452  
      19     0.1521    3.15378     0.1521    3.15378  
      20       0.07    3.56359       0.07    3.56359  

Angle Coeffs

       1         52        108          0          0  
       2         50      109.5          0          0  
       3         50        107          0          0  
       4         33      109.5         30      2.163  
       5         50        120          0          0  
       6         50        120          0          0  
       7         34        123          0          0  
       8         52        108          0          0  
       9         33      109.5         30      2.163  
      10         80      116.5          0          0  
      11         80        121          0          0  
      12      58.35      113.5      11.16      2.561  
      13       26.5      110.1      22.53      2.179  
      14         35        117          0          0  
      15         40        118         50      2.388  
      16       26.5      110.1      22.53      2.179  
      17         35        111          0          0  
      18         70      113.5          0          0  
      19       26.5      110.1      22.53      2.179  
      20         80      116.5          0          0  
      21         80        121          0          0  
      22         35        117          0          0  
      23       35.5        109        5.4      1.802  
      24       35.5        109        5.4      1.802  
      25       35.5      108.4        5.4      1.802  
      26       51.5      109.5          0          0  
      27         48        108          0          0  
      28      37.95     113.24          0          0  
      29    38.7433    111.727          0          0  
      30         80      122.5          0          0  
      31        100        124         70      2.225  
      32         70        125         20      2.442  
      33         55      110.5          0          0  
      34         50        123        210      2.262  
      35         55        115          0          0  

Dihedral Coeffs

       1       0.11          1          0          1  
       2       0.98          2        180          0  
       3        1.6          3        180          0  
       4        0.2          3          0          1  
       5        0.2          1        180          1  
       6          0          1          0          1  
       7        1.8          1          0          1  
       8          0          1          0          1  
       9          0          3          0          1  
      10          0          1        180          1  
      11       0.38          2        180          0  
      12       0.59          3        180          0  
      13       0.19          3          0          1  
      14        1.6          1          0          1  
      15        2.5          2        180          0  
      16        2.5          2        180          1  
      17       0.19          3          0          1  
      18        1.6          1          0          1  
      19        2.5          2        180          0  
      20        2.5          2        180          1  
      21        0.2          3          0          1  
      22        0.3          1          0          1  
      23       0.35          2          0          0  
      24       1.76          3          0          0  
      25          0          1          0          1  
      26        1.4          1          0          1  
      27          0          1          0          1  
      28       0.05          6        180          1  
      29        2.5          2        180          1  
      30        2.5          2        180          1  
      31        2.5          2        180          1  
      32          0          1          0          1  
      33          0          3          0          1  
      34       0.05          6        180          1  
      35       0.19          3          0          1  
      36        0.2          3          0          1  
      37        0.2          3          0          1  
      38          0          3          0          1  
      39          0          3        180          1  
      40          0          1          0          1  
      41          0          1          0          1  
      42        0.6          1          0          1  
      43          0          1          0          1  
      44       0.19          3          0          1  
      45          0          6        180          1  
      46          0          6        180          1  
      47          0          6        180          1  
      48          0          6        180          1  
      49       2.05          2        180          1  
      50       2.05          2        180          1  

Improper Coeffs

       1        120          0  
       2        120          0  
       3         96          0  
       4         20          0  
       5         20          0  
       6        100          0  

Atoms

       1       1     9      0.51       4.880      -3.424       1.773  0 0 0
       2       1    16     -0.51       4.875      -3.761       0.625  0 0 0
       3       1    15     -0.47       4.054      -2.477       2.229  0 0 0
       4       1     5      0.31       4.255      -2.295       3.177  0 0 0
       5       1    13     -0.11       2.996      -1.806       1.393  0 0 0
       6       1     8      0.09       2.224      -1.553       2.147  0 0 0
       7       1     8      0.09       3.308      -0.842       0.938  0 0 0
       8       1     8      0.09       2.522      -2.528       0.656  0 0 0
       9       1    13     -0.27       5.802      -8.003       2.176  0 0 0
      10       1     8      0.09       6.418      -8.037       1.257  0 0 0
      11       1     8      0.09       4.754      -8.388       1.848  0 0 0
      12       1     8      0.09       6.170      -8.677       2.978  0 0 0
      13       1     9      0.51       5.351      -6.703       2.773  0 0 0
      14       1    16     -0.51       4.524      -6.703       3.672  0 0 0
      15       1    15     -0.47       6.050      -5.563       2.377  0 0 0
      16       1     5      0.31       6.666      -5.644       1.616  0 0 0
      17       1    10      0.07       5.726      -4.247       2.868  0 0 0
      18       1     6      0.09       5.162      -4.333       3.786  0 0 0
      19       1    12     -0.18       7.078      -3.571       3.092  0 0 0
      20       1     7      0.09       7.382      -4.002       4.079  0 0 0
      21       1     7      0.09       7.849      -4.000       2.333  0 0 0
      22       1    11     -0.28       7.058      -2.057       2.956  0 0 0
      23       1     7      0.09       6.870      -1.788       1.906  0 0 0
      24       1     7      0.09       6.313      -1.492       3.560  0 0 0
      25       1    14      0.62       8.383      -1.453       3.339  0 0 0
      26       1    17     -0.76       9.398      -1.691       2.577  0 0 0
      27       1    17     -0.76       8.489      -0.666       4.321  0 0 0
      28       2     2     -0.82      11.901       1.109       5.719  0 0 0
      29       2     1      0.41     -11.858       1.276       6.606  0 0 0
      30       2     1      0.41     -11.609       0.680       5.065  1 0 0
      31      16     4      0.44      10.388       1.346       5.533  0 0 0
      32       3     2     -0.82       5.776       7.132       8.258  0 0 0
      33       3     1      0.41       5.059       7.659       7.790  0 0 0
      34       3     1      0.41       5.249       6.700       9.033  0 0 0
      35       4     2     -0.82     -10.830      -6.035      -7.105  1 0 0
      36       4     1      0.41     -11.477      -6.054      -7.927  0 0 0
      37       4     1      0.41     -10.485      -7.021      -6.958  1 0 0
      38       5     2     -0.82      10.786      -3.045       6.591  0 0 0
      39       5     1      0.41      11.240      -3.980       6.747  0 0 0
      40       5     1      0.41       9.752      -3.050       6.636  0 0 0
      41       6     2     -0.82       9.564      -8.359       9.390  0 0 0
      42       6     1      0.41       9.644      -7.623      10.057  0 0 0
      43       6     1      0.41      10.027      -8.009       8.506  0 0 0
      44       7     2     -0.82       4.713     -11.388      -4.717  0 1 0
      45       7     1      0.41       5.013     -11.172      -3.746  0 1 0
      46       7     1      0.41       5.209      11.993      -4.938  0 0 0
      47       8     2     -0.82      -4.965       2.526       6.530  0 0 0
      48       8     1      0.41      -5.628       2.227       7.299  0 0 0
      49       8     1      0.41      -4.512       1.709       6.134  0 0 0
      50       9     2     -0.82       4.729       1.290       2.482  0 0 0
      51       9     1      0.41       4.520       1.563       1.511  0 0 0
      52       9     1      0.41       3.707       1.111       2.796  0 0 0
      53      10     2     -0.82      -3.039      10.535       7.374  0 0 0
      54      10     1      0.41      -2.622      11.420       6.987  0 0 0
      55      10     1      0.41      -3.429      10.819       8.292  0 0 0
      56      11     2     -0.82      -6.294       8.491       1.929  0 0 0
      57      11     1      0.41      -6.554       9.123       2.744  0 0 0
      58      11     1      0.41      -7.035       7.728       1.995  0 0 0
      59      12     2     -0.82      -3.487       6.315      -8.957  0 0 0
      60      12     1      0.41      -2.552       5.909      -8.757  0 0 0
      61      12     1      0.41      -3.861       6.762      -8.065  0 0 0
      62      13     2     -0.82      -3.307       0.381      -4.248  0 0 0
      63      13     1      0.41      -3.902       1.187      -3.966  0 0 0
      64      13     1      0.41      -3.716      -0.358      -3.717  0 0 0
      65      14     2     -0.82       8.564      -7.686      -1.414  -1 0 0
      66      14     1      0.41       8.448      -7.282      -0.506  0 0 0
      67      14     1      0.41       7.610      -7.628      -1.727  -1 0 0
      68      15     2     -0.82      -4.416       7.965      -6.875  0 0 0
      69      15     1      0.41      -4.136       8.860      -7.368  0 0 0
      70      15     1      0.41      -5.045       8.340      -6.179  0 0 0
      71      16     3     -0.32       9.355       1.331       5.356  0 0 0
      72      16     4      0.44       9.124       0.375       4.957  0 0 0
      73      16     4      0.44       8.990       2.032       4.640  0 0 0
      74      17     2     -0.82       1.420     -11.562      -2.327  0 1 0
      75      17     1      0.41       0.390     -11.561      -2.250  0 1 0
      76      17     1      0.41       1.708      11.803      -1.924  0 0 0
      77      18     2     -0.82      10.377       8.796       3.679  -1 0 0
      78      18     1      0.41      11.091       8.795       2.923  -1 0 0
      79      18     1      0.41      10.136       9.786       3.806  -1 0 0
      80      19     2     -0.82       8.964      -4.253      -1.611  0 0 0
      81      19     1      0.41       9.925      -4.572      -1.816  0 0 0
      82      19     1      0.41       8.532      -3.799      -2.408  0 0 0
      83      20     2     -0.82      -4.678      11.294      -9.770  0 0 0
      84      20     1      0.41      -5.204      10.578     -10.274  0 -1 0
      85      20     1      0.41      -5.336      11.481      -8.980  0 0 0
      86      21     2     -0.82     -10.761      -8.506     -10.240  0 0 1
      87      21     1      0.41     -11.167      -9.202      -9.630  0 1 1
      88      21     1      0.41      -9.794      -8.433      -9.962  0 0 1
      89      22     2     -0.82      -5.785      -1.122      -2.213  0 0 0
      90      22     1      0.41      -5.196      -1.960      -1.987  0 0 0
      91      22     1      0.41      -6.380      -1.204      -3.026  0 0 0
      92      23     2     -0.82       0.443      -1.371      -4.624  0 0 0
      93      23     1      0.41      -0.055      -0.668      -4.063  0 0 0
      94      23     1      0.41       0.378      -1.483      -5.671  0 0 0
      95      24     2     -0.82       7.273       8.062      -8.533  0 0 0
      96      24     1      0.41       7.108       8.943      -9.096  0 0 0
      97      24     1      0.41       7.789       7.412      -9.154  0 0 0
      98      25     2     -0.82      -8.108       6.382       1.851  0 0 0
      99      25     1      0.41      -7.470       5.925       1.175  0 0 0
     100      25     1      0.41      -9.004       6.337       1.349  0 0 0
     101      26     2     -0.82     -10.854      -5.904       9.143  1 0 -1
     102      26     1      0.41     -10.085      -5.211       9.232  0 0 -1
     103      26     1      0.41     -10.617      -6.803       9.540  1 0 -1
     104      27     2     -0.82      -9.498       7.931      -0.918  0 0 0
     105      27     1      0.41      -8.468       7.805      -1.089  0 0 0
     106      27     1      0.41      -9.780       7.383      -0.112  0 0 0
     107      28     2     -0.82       8.496      10.250     -11.940  0 0 1
     108      28     1      0.41       9.176       9.911      11.623  0 0 0
     109      28     1      0.41       7.524      10.032      11.966  0 0 0
     110      29     2     -0.82       4.367      -6.484       7.049  0 0 0
     111      29     1      0.41       4.642      -5.616       7.389  0 0 0
     112      29     1      0.41       4.132      -7.122       7.800  0 0 0
     113      30     2     -0.82       3.204      -7.893       9.146  0 0 -1
     114      30     1      0.41       2.603      -7.503       9.872  0 0 0
     115      30     1      0.41       3.773      -8.605       9.626  0 0 -1
     116      31     2     -0.82      -1.498      11.635      -5.428  0 0 0
     117      31     1      0.41      -1.343     -11.581      -5.609  0 0 0
     118      31     1      0.41      -0.933      11.046      -6.071  0 0 0
     119      32     2     -0.82     -11.996       9.691       0.133  0 0 0
     120      32     1      0.41      11.930       9.935      -0.810  -1 0 0
     121      32     1      0.41     -11.534       8.796       0.274  0 0 0
     122      33     2     -0.82     -10.679      -5.738       1.015  0 0 0
     123      33     1      0.41     -10.672      -5.498       0.033  0 0 0
     124      33     1      0.41     -11.222      -4.977       1.492  0 0 0
     125      34     2     -0.82       0.623       9.870      -1.069  0 0 0
     126      34     1      0.41       1.670       9.985      -1.200  0 0 0
     127      34     1      0.41       0.023      10.658      -0.784  0 0 0
     128      35     2     -0.82       6.483       2.754      -6.764  0 0 0
     129      35     1      0.41       5.693       2.233      -6.352  0 0 0
     130      35     1      0.41       7.332       2.375      -6.345  0 0 0
     131      36     2     -0.82      -0.224      -8.769      -9.093  0 0 1
     132      36     1      0.41      -0.274      -8.257      -8.184  0 0 1
     133      36     1      0.41       0.167      -9.644      -8.755  0 0 1
     134      37     2     -0.82      -6.405       9.249      -4.520  0 0 0
     135      37     1      0.41      -6.980       8.866      -5.257  0 0 0
     136      37     1      0.41      -6.285       8.564      -3.762  0 0 0
     137      38     2     -0.82     -11.032      -3.948      -1.588  0 0 0
     138      38     1      0.41     -10.315      -3.730      -2.268  0 0 0
     139      38     1      0.41     -11.367      -2.992      -1.334  0 0 0
     140      39     2     -0.82       8.311       8.563       8.654  0 0 0
     141      39     1      0.41       7.413       8.171       8.665  0 0 0
     142      39     1      0.41       8.466       8.870       7.683  0 0 0
     143      40     2     -0.82      -4.648      -1.089       1.757  0 0 0
     144      40     1      0.41      -4.889      -2.078       1.532  0 0 0
     145      40     1      0.41      -3.626      -0.903       1.604  0 0 0
     146      41     2     -0.82      -0.668     -10.078      -5.782  0 0 0
     147      41     1      0.41       0.129      -9.620      -6.194  0 0 0
     148      41     1      0.41      -0.615      -9.784      -4.789  0 0 0
     149      42     2     -0.82       2.656      -9.311      -3.872  0 0 0
     150      42     1      0.41       2.386     -10.259      -4.030  0 0 0
     151      42     1      0.41       3.435      -9.255      -3.268  0 0 0
     152      43     2     -0.82       2.180     -11.436      11.023  0 0 0
     153      43     1      0.41       1.594     -10.779      10.506  0 1 0
     154      43     1      0.41       3.141     -11.147      10.981  0 0 0
     155      44     2     -0.82      -4.346       2.365      -0.961  0 0 0
     156      44     1      0.41      -4.412       2.238      -1.991  0 0 0
     157      44     1      0.41      -5.222       1.886      -0.686  0 0 0
     158      45     2     -0.82       9.831       3.908      -2.871  0 0 0
     159      45     1      0.41       8.820       3.705      -2.848  0 0 0
     160      45     1      0.41       9.955       4.790      -2.406  0 0 0
     161      46     2     -0.82     -11.506       5.931      -1.707  0 0 0
     162      46     1      0.41     -10.752       5.314      -2.106  0 0 0
     163      46     1      0.41      12.094       6.388      -2.378  -1 0 0
     164      47     2     -0.82      -9.539       6.704      -6.069  0 0 0
     165      47     1      0.41      -9.423       7.109      -5.128  0 0 0
     166      47     1      0.41      -9.153       5.763      -6.194  0 0 0
     167      48     2     -0.82      10.561      -7.492       7.099  -1 0 0
     168      48     1      0.41      11.246      -6.695       7.134  -1 0 0
     169      48     1      0.41      10.931      -8.193       6.457  0 0 0
     170      49     2     -0.82     -11.668     -11.413       6.730  0 1 0
     171      49     1      0.41     -11.857      11.819       6.901  0 0 0
     172      49     1      0.41     -10.949     -11.122       7.465  0 1 0
     173      50     2     -0.82      11.068       3.426      -6.420  0 0 0
     174      50     1      0.41      10.495       2.746      -5.935  0 0 0
     175      50     1      0.41      10.568       4.293      -6.561  0 0 0
     176      51     2     -0.82      11.763      -2.335       4.132  -1 0 0
     177      51     1      0.41      10.985      -1.878       3.601  -1 0 0
     178      51     1      0.41      11.352      -2.771       4.960  -1 0 0
     179      52     2     -0.82       5.661       8.303      -0.322  0 0 0
     180      52     1      0.41       6.609       7.965      -0.382  0 0 0
     181      52     1      0.41       5.412       8.505      -1.313  0 0 0
     182      53     2     -0.82      -6.576      11.295      -7.438  0 0 0
     183      53     1      0.41      -6.980      10.460      -6.987  0 0 0
     184      53     1      0.41      -5.753      11.529      -6.881  0 0 0
     185      54     2     -0.82      -9.098       0.111      10.385  0 0 0
     186      54     1      0.41      -9.895       0.745      10.236  0 0 0
     187      54     1      0.41      -9.198      -0.524      11.197  0 0 0
     188      55     2     -0.82       8.582      -9.108      -3.811  0 0 0
     189      55     1      0.41       9.209      -8.320      -4.080  0 0 0
     190      55     1      0.41       8.595      -9.020      -2.775  0 0 0
     191      56     2     -0.82       1.246     -11.094     -10.349  0 1 0
     192      56     1      0.41       1.100     -11.725     -11.124  0 1 0
     193      56     1      0.41       1.474     -11.735      -9.567  0 0 0
     194      57     2     -0.82      -0.763       6.128       2.383  0 0 0
     195      57     1      0.41      -0.570       6.007       3.404  0 0 0
     196      57     1      0.41      -0.741       7.136       2.080  0 0 0
     197      58     2     -0.82      11.855      11.588       9.617  0 -1 0
     198      58     1      0.41      11.108      10.956       9.917  0 -1 0
     199      58     1      0.41      11.517     -11.664       9.771  0 0 0
     200      59     2     -0.82      -6.520      -7.443       9.429  0 0 0
     201      59     1      0.41      -6.341      -8.326       8.967  0 0 0
     202      59     1      0.41      -7.026      -6.795       8.801  0 0 0
     203      60     2     -0.82       8.551     -10.790       0.963  0 1 0
     204      60     1      0.41       8.548     -11.797       0.720  0 1 0
     205      60     1      0.41       9.259     -10.391       0.287  0 1 0
     206      61     2     -0.82       2.176      -4.976       4.151  0 0 0
     207      61     1      0.41       2.505      -4.187       4.685  0 0 0
     208      61     1      0.41       3.084      -5.344       3.893  0 0 0
     209      62     2     -0.82      -6.303       7.141       5.641  0 0 0
     210      62     1      0.41      -5.793       7.597       4.916  0 0 0
     211      62     1      0.41      -5.735       6.488       6.170  0 0 0
     212      63     2     -0.82       9.162      -2.837      -3.936  0 0 0
     213      63     1      0.41       9.311      -1.932      -3.464  0 0 0
     214      63     1      0.41       9.719      -2.968      -4.821  -1 0 0
     215      64     2     -0.82      11.282     -10.223      10.311  -1 0 0
     216      64     1      0.41      11.872      -9.551      10.852  -1 0 0
     217      64     1      0.41      10.391      -9.716      10.098  -1 0 0
     218      65     2     -0.82      -7.553      11.348       8.738  0 0 0
     219      65     1      0.41      -7.062      11.569       9.603  0 0 0
     220      65     1      0.41      -8.465      11.047       9.086  0 0 0
     221      66     2     -0.82      10.947     -10.015       5.180  0 0 0
     222      66     1      0.41      11.360      -9.953       4.221  0 0 0
     223      66     1      0.41      11.651     -10.515       5.742  -1 0 0
     224      67     2     -0.82      -6.521       8.249       9.550  0 0 0
     225      67     1      0.41      -6.874       9.158       9.912  0 0 0
     226      67     1      0.41      -7.199       8.066       8.821  0 0 0
     227      68     2     -0.82       6.056      -5.414      -1.110  0 0 0
     228      68     1      0.41       5.804      -4.768      -0.322  0 0 0
     229      68     1      0.41       6.748      -4.976      -1.725  0 0 0
     230      69     2     -0.82     -10.713       0.130       3.864  1 0 0
     231      69     1      0.41     -10.045      -0.583       4.210  1 0 0
     232      69     1      0.41     -11.480      -0.316       3.393  1 0 0
     233      70     2     -0.82      -6.455      -1.824      10.097  0 0 -1
     234      70     1      0.41      -6.994      -1.182      10.660  0 0 -1
     235      70     1      0.41      -6.220      -1.357       9.220  0 0 0
     236      71     2     -0.82      -6.252      11.554      10.951  0 -1 0
     237      71     1      0.41      -6.071     -11.725      11.233  0 0 0
     238      71     1      0.41      -5.262      11.333      10.685  0 0 0
     239      72     2     -0.82       7.253     -11.027       3.407  0 0 0
     240      72     1      0.41       7.774     -10.992       2.517  0 0 0
     241      72     1      0.41       7.730     -10.411       4.093  0 1 0
     242      73     2     -0.82     -10.751       8.729     -10.324  0 0 0
     243      73     1      0.41     -10.030       8.634      -9.588  0 0 0
     244      73     1      0.41     -10.380       8.465     -11.256  0 0 0
     245      74     2     -0.82      -3.775       1.782       3.192  0 0 0
     246      74     1      0.41      -4.735       2.155       3.249  0 0 0
     247      74     1      0.41      -3.283       2.281       2.404  0 0 0
     248      75     2     -0.82      -5.014       0.211      -7.373  0 0 0
     249      75     1      0.41      -3.986       0.164      -7.187  0 0 0
     250      75     1      0.41      -5.459      -0.444      -6.766  0 0 0
     251      76     2     -0.82       3.481      -2.840      -2.834  0 0 0
     252      76     1      0.41       3.801      -3.811      -2.838  0 0 0
     253      76     1      0.41       2.444      -2.977      -2.582  0 0 0
     254      77     2     -0.82       4.756      -9.630      10.432  0 0 0
     255      77     1      0.41       5.030     -10.409       9.813  0 0 0
     256      77     1      0.41       5.170      -9.727      11.373  0 0 0
     257      78     2     -0.82      -8.607      -1.756     -11.888  0 0 0
     258      78     1      0.41      -8.002      -1.691     -11.068  0 0 0
     259      78     1      0.41      -8.817      -2.795     -11.922  0 0 0
     260      79     2     -0.82     -10.808       0.966       8.190  0 0 0
     261      79     1      0.41      -9.918       1.167       7.643  0 0 0
     262      79     1      0.41     -11.257       0.043       8.096  0 0 0
     263      80     2     -0.82     -11.278       8.831       2.757  0 0 0
     264      80     1      0.41     -11.401       9.561       3.513  1 0 0
     265      80     1      0.41     -10.990       9.308       1.895  0 0 0
     266      81     2     -0.82       4.627      -7.851      -8.998  0 0 0
     267      81     1      0.41       5.487      -8.079      -9.512  0 0 0
     268      81     1      0.41       4.428      -6.816      -9.017  0 0 0
     269      82     2     -0.82       2.457      -5.074      -0.163  0 0 0
     270      82     1      0.41       3.457      -4.931       0.139  0 0 0
     271      82     1      0.41       2.571      -5.066      -1.187  0 0 0
     272      83     2     -0.82      -7.558      -7.261      -6.810  0 0 0
     273      83     1      0.41      -6.565      -7.191      -6.562  0 0 0
     274      83     1      0.41      -7.606      -7.022      -7.812  0 0 0
     275      84     2     -0.82       8.749      -5.253       7.399  0 0 0
     276      84     1      0.41       9.453      -5.975       7.417  0 0 0
     277      84     1      0.41       8.508      -5.075       8.388  0 0 0
     278      85     2     -0.82       4.723       6.888      -8.371  0 0 0
     279      85     1      0.41       5.629       7.146      -8.104  0 0 0
     280      85     1      0.41       3.950       7.549      -8.223  0 0 0
     281      86     2     -0.82      -2.438      -0.888     -10.929  0 0 0
     282      86     1      0.41      -2.920       0.024     -10.923  0 0 1
     283      86     1      0.41      -2.624      -1.390     -11.795  0 0 0
     284      87     2     -0.82      10.223      -2.898       0.531  0 0 0
     285      87     1      0.41       9.490      -3.045      -0.160  0 0 0
     286      87     1      0.41       9.908      -2.362       1.372  0 0 0
     287      88     2     -0.82      -1.368      -5.841       7.072  0 0 0
     288      88     1      0.41      -0.437      -6.229       6.726  0 0 0
     289      88     1      0.41      -1.837      -6.649       7.543  0 0 0
     290      89     2     -0.82      -9.234      -3.427       9.774  0 0 -1
     291      89     1      0.41      -9.368      -3.736      10.747  0 0 -1
     292      89     1      0.41      -8.445      -2.755       9.884  0 0 -1
     293      90     2     -0.82       4.937      11.557       9.497  0 -1 0
     294      90     1      0.41       5.690      11.740       8.843  0 -1 0
     295      90     1      0.41       4.081      11.310       8.942  0 -1 0
     296      91     2     -0.82      -0.588      -3.600       4.351  0 0 0
     297      91     1      0.41       0.053      -4.279       3.997  0 0 0
     298      91     1      0.41      -1.434      -3.557       3.743  0 0 0
     299      92     2     -0.82     -11.771      -1.645      -0.658  0 0 0
     300      92     1      0.41     -11.290      -0.892      -0.146  0 0 0
     301      92     1      0.41      11.612      -1.974      -0.226  0 0 0
     302      93     2     -0.82      -7.994      -8.673     -10.215  0 0 0
     303      93     1      0.41      -7.650      -7.724      -9.949  0 0 0