LAMMPS data file from restart file: timestep = 20000; edited to sort order and remove velocities

        1429  atoms
         961  bonds
         514  angles
          63  dihedrals
           6  impropers
          80  atom types
         125  bond types
         274  angle types
         327  dihedral types
          27  improper types

   -16.22781      8.02157 xlo xhi
   -10.81680     13.43258 ylo yhi
   -10.28551     13.96387 zlo zhi

Masses

       1     14.007  
       2      1.008  
       3     12.011  
       4      1.008  
       5     12.011  
       6      1.008  
       7     14.007  
       8     12.011  
       9     15.999  
      10     14.007  
      11      1.008  
      12     12.011  
      13      1.008  
      14     15.999  
      15     12.011  
      16     12.011  
      17     14.007  
      18     12.011  
      19      32.06  
      20     12.011  
      21     14.007  
      22     14.007  
      23     12.011  
      24     12.011  
      25      1.008  
      26     14.007  
      27      1.008  
      28     15.999  
      29     14.007  
      30     12.011  
      31     12.011  
      32     12.011  
      33      1.008  
      34     14.007  
      35      1.008  
      36     12.011  
      37     15.999  
      38    15.9994  # OT
      39      1.008  # HT
      40    15.9994  
      41      1.008  
      42     14.007  
      43     12.011  
      44      1.008  
      45     12.011  
      46      1.008  
      47     30.974  
      48    15.9994  
      49    15.9994  
      50     12.011  
      51      1.008  
      52    15.9994  
      53     12.011  
      54    15.9994  
      55     12.011  
      56      1.008  
      57     14.007  
      58      1.008  
      59     12.011  
      60      1.008  
      61    39.0983  
      62      35.45  
      63       63.5  
      64     24.305  
      65      40.08  
      66     55.847  
      67     14.007  
      68     12.011  
      69     12.011  
      70     12.011  
      71     12.011  
      72      1.008  
      73    15.9994  
      74    15.9994  
      75      1.008  
      76     12.011  
      77      1.008  
      78     12.011  
      79      1.008  
      80     15.999  

Pair Coeffs

       1        0.2   3.296325        0.2    3.29632  
       2      0.046  0.4000135      0.046  0.4000135  
       3       0.02   4.053589       0.01   3.385415  #CT1
       4      0.022   2.351973      0.022   2.351973  #HA
       5      0.055   3.875409       0.01   3.385415  #CT2
       6      0.022   2.351973      0.022    2.35197  #HB
       7        0.2    3.29632        0.2    3.29632  
       8       0.11   3.563595       0.11   3.563595  #C
       9       0.12   3.029056       0.12   2.494516  #O
      10        0.2   3.296325        0.2   2.761786  #NH1
      11      0.046  0.4000135      0.046  0.4000135  #H
      12       0.07    3.55005       0.07    3.55005  
      13       0.03    2.42004       0.03    2.42004  
      14     0.1521   3.153781     0.1521   3.153781  #OH1
      15       0.08   3.670503       0.01   3.385415  #CT3
      16       0.07    3.55005       0.07    3.55005  
      17        0.2    3.29632        0.2    3.29632  
      18       0.09    3.20723       0.09    3.38542  
      19       0.45    3.56359       0.45    3.56359  
      20       0.07   3.563595       0.07   3.563595  #CD
      21        0.2    3.29632        0.2    3.29632  
      22        0.2    3.29632        0.2    3.29632  
      23       0.05    3.20723       0.05    3.20723  
      24       0.05    3.20723       0.05    3.20723  
      25      0.046    1.60362      0.046    1.60362  
      26        0.2    3.29632        0.2    3.29632  
      27     0.0078    2.61568     0.0078    2.61568  
      28       0.12   3.029056       0.12   3.029056  #OC
      29        0.2    3.29632     0.0001    3.29632  
      30      0.055    3.87541       0.01    3.38542  
      31       0.02    4.05359       0.01    3.38542  
      32      0.055    3.87541       0.01    3.38542  
      33        0.1   0.801809        0.1   0.801809  
      34        0.2    3.29632        0.2    3.29632  
      35      0.046    1.24726      0.046    1.24726  
      36       0.07   3.563595       0.07   3.563595  #CC
      37       0.12    3.02906       0.12    2.49452  #OB
      38  0.1554253    3.16549  0.1554253   3.165492  #OT
      39          0          0          0          0  #HT
      40  0.0986097   3.118507  0.0986097   3.118507  #OTH
      41 4.0583e-05          0 4.0583e-05          0  #HTH
      42        0.2    3.29632        0.2    3.29632  
      43       0.08     3.6705       0.01    3.38542  
      44      0.046    1.24726      0.046    1.24726  
      45      0.056    3.58141       0.01    3.38542  
      46      0.028    2.38761      0.028    2.38761  
      47      0.585    3.83087      0.585    3.83087  
      48       0.12    3.02906       0.12    3.02906  
      49        0.1    2.93997        0.1    2.93997  
      50       0.02    4.05359       0.01    3.38542  
      51      0.022    2.35197      0.022    2.35197  
      52        0.1    2.93997        0.1    2.93997  
      53       0.07    3.56359       0.07    3.56359  
      54       0.12    3.02906       0.12    2.49452  
      55      0.078    3.63487       0.01    3.38542  
      56      0.024    2.38761      0.024    2.38761  
      57        0.2    3.29632        0.2    3.29632  
      58      0.046   0.400014      0.046   0.400014  
      59      0.068    3.72396      0.068    3.72396  
      60      0.031    2.22725      0.031    2.22725  
      61      0.087    3.14264      0.087    3.14264  
      62       0.15    4.04468       0.15    4.04468  
      63       0.06    2.45888       0.06    2.45888  
      64      0.015    2.11143      0.015    2.11143  
      65       0.12    2.43572       0.12    2.43572  
      66       0.05    2.13816       0.05    2.13816  
      67        0.2    3.29632        0.2    3.29632  
      68       0.09    3.20723       0.09    3.20723  
      69       0.09    3.20723       0.09    3.20723  
      70       0.09    3.20723       0.09    3.20723  
      71       0.06    3.20723       0.06    3.20723  
      72      0.046    1.60362      0.046    1.60362  
      73       0.12    3.02906       0.12    2.49452  
      74     0.1521    3.15378     0.1521    3.15378  
      75      0.046   0.400014      0.046   0.400014  
      76      0.068    3.72396      0.068    3.72396  
      77      0.031    2.22725      0.031    2.22725  
      78      0.064    3.70614      0.064    3.70614  
      79      0.026    2.24506      0.026    2.24506  
      80       0.12    3.02906       0.12    3.02906  

Angle Coeffs

       1       51.5      107.5          0          0  
       2       43.7        110          0          0  
       3         30      109.5         20      2.074  
       4         44      109.5          0          0  
       5         80        121          0          0  
       6         80      116.5          0          0  
       7      33.43      110.1      22.53      2.179  
       8      58.35      113.5      11.16      2.561  
       9       26.5      110.1      22.53      2.179  
      10      58.35      113.6      11.16      2.561  
      11         35        111          0          0  
      12         52        108          0          0  # C CT1 CT2
      13       67.7        110          0          0  
      14       35.5        109        5.4      1.802  
      15       67.7      107.5          0          0  
      16       40.4        120          0          0  
      17       62.3        120          0          0  
      18         52        120         90     2.3642  
      19       51.5      107.5          0          0  
      20         49        120          0          0  
      21         25        120          0          0  
      22         50      109.5          0          0  # C CT1 HB
      23         48        108          0          0  
      24         50        107          0          0  
      25         80      122.5          0          0  
      26         34        123          0          0  # C NH1 H
      27         35        117          0          0  
      28         80        121          0          0  
      29         80      116.5          0          0  
      30         50        120          0          0  # C NH1 CT1
      31         36        115          0          0  
      32         50      109.5          0          0  
      33         48        108          0          0  
      34         50        107          0          0  # C CT1 NH1
      35         35        117          0          0  
      36       51.8      107.5          0          0  
      37         50        120          0          0  # C NH1 CT3
      38       45.8      122.3          0          0  
      39         70      113.5          0          0  
      40         40        120         35     2.4162  
      41         30        120         22     2.1525  
      42       49.3      107.5          0          0  
      43       34.5      110.1      22.53      2.179  
      44      53.35      108.5          8      2.561  
      45       75.7      110.1          0          0  
      46      33.43      110.1      22.53      2.179  
      47       57.5        106          0          0  
      48         35        111          0          0  
      49         52        108          0          0  
      50         70      113.5          0          0  
      51       45.9     108.89          0          0  
      52       75.7      110.1          0          0  
      53       34.5      110.1      22.53      2.179  
      54       35.5      108.4        5.4      1.802  
      55      58.35        114          0          0  
      56       45.8      129.4          0          0  
      57       45.8        124          0          0  
      58        110      107.4          0          0  
      59        160      130.6          0          0  
      60      33.43      109.5          0          0  
      61         28        126          0          0  
      62        110        108          0          0  
      63         32        125         25      2.173  
      64        110      107.4          0          0  
      65        120        110         25       2.24  
      66         32        125         25      2.177  
      67         60        118          0          0  
      68         30        122         22      2.146  
      69         28        126          0          0  
      70        120      107.4         25      2.261  
      71         60        122          0          0  
      72        160      130.6          0          0  
      73         58      114.5          0          0  
      74         34         95          0          0  
      75       46.1      111.3          0          0  
      76       46.1      111.3          0          0  
      77       75.7      110.1          0          0  
      78       57.5        106          0          0  
      79       45.9     108.89          0          0  
      80         52        108          0          0  
      81         15        121         50       2.44  
      82         50      116.5         50       2.45  
      83         50        120          0          0  
      84         33      109.5         30      2.163  # C CT3 HA
      85         75      122.5         50       2.37  
      86         23        120          0          0  
      87      58.35        113          0          0  
      88       45.8        130          0          0  
      89       45.8        120          0          0  
      90        130        110          0          0  
      91        130        104          0          0  
      92      33.43      109.5          0          0  
      93         30        127         20       2.14  
      94         25        125         20       2.12  
      95        130        106          0          0  
      96         25        124         20       2.14  
      97        130      112.5          0          0  
      98         25      122.5         20       2.14  
      99         30      125.5         20       2.15  
     100        130      107.5          0          0  
     101         25        130         20        2.2  
     102       67.7        110          0          0  
     103         30      109.5         20      2.074  
     104         45      107.5         35      2.101  
     105         40        118         50      2.388  
     106        100        124         70      2.225  
     107      53.35        111          8      2.561  
     108      58.35      113.5      11.16      2.561  
     109       34.6      110.1      22.53      2.179  
     110       34.5      110.1      22.53      2.179  
     111      53.35        114          8      2.561  
     112       34.6      110.1      22.53      2.179  
     113      53.35        114          8      2.561  
     114      58.35      113.5      11.16      2.561  
     115         65        108          0          0  
     116       45.2        120          0          0  
     117         35        111          0          0  
     118         52        108          0          0  
     119         70      113.5          0          0  
     120         52        108          0          0  # CD CT2 CT1
     121         20      112.5          0          0  
     122         48        112          0          0  
     123         70      110.8          0          0  
     124         48        108          0          0  
     125         80      122.5          0          0  
     126       26.5      110.1      22.53      2.179  
     127         60        117          0          0  
     128       35.5        109        5.4      1.802  
     129         80        118          0          0  
     130         80      116.5          0          0  
     131      33.43      110.1      22.53      2.179  
     132         70      108.5          0          0  
     133         60        117          0          0  
     134        100      114.2          0          0  
     135       26.5      110.1      22.53      2.179  
     136         70      108.5          0          0  
     137         35        118          0          0  
     138       35.5        109        5.4      1.802  
     139       26.5      110.1      22.53      2.179  
     140         70      110.5          0          0  
     141         50        112          0          0  
     142         52      112.3          0          0  
     143         50      108.2          0          0  
     144         58      112.5          0          0  
     145       38.8         95          0          0  
     146       45.8        122          0          0  
     147        145        108          0          0  
     148         25        126         15       2.13  
     149         22        130         15      2.215  
     150        145        108          0          0  
     151         22        122         15       2.18  
     152         25        126         15       2.09  
     153        145        108          0          0  
     154         32        126         25       2.14  
     155       45.8        124          0          0  
     156         50         90          0          0  
     157         25        120         20       2.14  
     158         20      112.5          0          0  
     159         50        111          0          0  
     160         38      109.5         50       2.14  
     161         39      106.5          0          0  
     162       67.7        110          0          0  
     163         70        125         20      2.442  
     164         55      110.5          0          0  
     165         33      109.5         30      2.163  
     166         50        123        210      2.262  
     167         55        115          0          0  
     168         52        108          0          0  
     169          0        180          0          0  
     170          0        180          0          0  
     171         50      109.5          0          0  
     172         40        118         50      2.388  
     173         50        107          0          0  
     174         52        108          0          0  
     175       67.7        110          0          0  
     176         20      112.5          0          0  
     177         52        108          0          0  
     178       51.5      107.5          0          0  
     179       43.7        110          0          0  
     180         52        108          0          0  
     181      37.95     113.24          0          0  # HT OT HT
     182   38.74335   111.7269          0          0  # HTH OTH HTH
     183       67.7        115          0          0  
     184         40      109.5         27       2.13  
     185         40      109.5         27       2.13  
     186         60      109.5         26      2.466  
     187         60      109.5         26      2.466  
     188         24      109.5         28      1.767  
     189       75.7      110.1          0          0  
     190       26.5      110.1      22.53      2.179  
     191      33.43      110.1      22.53      2.179  
     192         24      109.5         28      1.767  
     193         20        120         35       2.33  
     194         60      109.5          0          0  
     195       35.5        109        5.4      1.802  
     196        120        120          0          0  
     197       98.9      111.6          0          0  
     198         80      104.3          0          0  
     199       75.7      110.1          0          0  
     200      58.35      113.5      11.16      2.561  
     201       34.5      110.1      22.53      2.179  
     202       26.5      110.1      22.53      2.179  
     203       75.7      110.1          0          0  
     204         40      109.6         30     2.2651  
     205       75.7      110.1          0          0  
     206         60      109.5          0          0  
     207         90      125.9        160     2.2576  
     208         55        109         20      2.326  
     209         52        108          0          0  
     210         33      109.5         30      2.163  
     211      58.35      113.6      11.16      2.561  
     212         70        125         20      2.442  
     213         40      109.6         30     2.2651  
     214         60      109.5          0          0  
     215         58        115          8      2.561  
     216       34.6      110.1      22.53      2.179  
     217       34.6      110.1      22.53      2.179  
     218       35.5      108.4        5.4      1.802  
     219       67.7        110          0          0  
     220         45      107.5         35     2.0836  
     221         33      109.5          4      2.056  
     222         41      109.5          0          0  
     223         32      112.2          0          0  
     224         48      123.5          0          0  
     225         40        116          0          0  
     226         45      111.5          0          0  
     227         52      119.5          0          0  
     228          0        104          0          0  
     229          0        104          0          0  
     230      96.15     128.05          0          0  
     231         30        123          0          0  
     232         30        133          0          0  
     233         88     124.39          0          0  
     234        122     111.54          0          0  
     235      14.39         90          0          0  
     236       12.7     117.44          0          0  
     237         65     126.74          0          0  
     238       30.8     106.51          0          0  
     239      139.3      103.9          0          0  
     240         50      109.5          0          0  
     241         70        113          0          0  
     242         45      119.8          0          0  
     243       61.6     124.07          0          0  
     244         65     126.75          0          0  
     245       94.2     125.12          0          0  
     246         45      119.8          0          0  
     247         65     126.74          0          0  
     248         50      109.5          0          0  
     249      58.35      113.5      11.16      2.561  
     250       75.7      110.1          0          0  
     251       34.5      110.1      22.53      2.179  
     252         65     126.75          0          0  
     253         70     126.75          0          0  
     254         50        120          0          0  
     255         70      121.5          0          0  
     256         70     126.74          0          0  
     257         15        116          0          0  
     258         75        126          0          0  
     259         65        118          0          0  
     260      58.35      113.5      11.16      2.561  
     261       57.5        106          0          0  
     262         65     126.74          0          0  
     263         65     126.75          0          0  
     264       45.9     108.89          0          0  
     265       75.7      110.1          0          0  
     266         45      120.5          0          0  
     267         42        118          0          0  
     268         19        119          0          0  
     269         48      123.5          0          0  
     270         42      111.5          0          0  
     271         47      125.2          0          0  
     272         47      125.2          0          0  
     273          5         90          0          0  
     274       51.5      109.5          0          0  

Dihedral Coeffs

       1        0.2          3          0          1  
       2        0.6          1          0          1  
       3          0          1          0          1  
       4        0.1          3          0          1  
       5        2.5          2        180          1  
       6        1.6          1          0          1  
       7        2.5          2        180          0  
       8      0.195          3          0          1  
       9          0          1          0          1  
      10          0          1          0          1  
      11          0          1          0          1  
      12        1.4          1          0          1  
      13          0          6        180          1  
      14       2.25          2        180          1  
      15        0.2          1        180          1  
      16          0          1          0          1  
      17        2.5          2        180          1  
      18        2.5          2        180          1  
      19        0.6          1          0          1  
      20          0          1          0          1  
      21          0          1          0          1  
      22          0          1          0          1  
      23        2.5          2        180          1  
      24        1.6          1          0          1  
      25        2.5          2        180          0  
      26          0          1          0          1  
      27          0          1          0          1  
      28        1.8          1          0          1  
      29        0.2          1        180          1  
      30          0          1          0          1  
      31        2.5          2        180          1  
      32        0.6          1          0          1  
      33          0          1          0          1  
      34          0          1          0          1  
      35          0          1          0          1  
      36          0          1          0          1  
      37        1.6          1          0          1  
      38        2.5          2        180          0  
      39       0.23          2        180          1  
      40        4.2          2        180          1  
      41        3.1          2        180          1  
      42          0          6          0          1  
      43        3.1          2        180          1  
      44        4.2          2        180          1  
      45       0.04          3          0          1  
      46        2.4          2        180          1  
      47        1.8          1          0          1  
      48        0.2          3          0          1  
      49          0          1          0          1  
      50       1.33          1          0          1  
      51       0.18          2          0          0  
      52       0.32          3          0          0  
      53        0.2          3          0          1  
      54          0          1          0          1  
      55        1.4          1          0          1  
      56       0.14          3          0          1  
      57       1.33          1          0          1  
      58       0.18          2          0          0  
      59       0.32          3          0          0  
      60       0.23          2        180          1  
      61       0.23          2        180          1  
      62          3          2        180          1  
      63          3          2        180          1  
      64        3.5          2        180          1  
      65        1.2          2        180          1  
      66       0.25          2        180          1  
      67       0.25          2        180          1  
      68          3          2        180          1  
      69          3          2        180          1  
      70         10          2        180          1  
      71          5          2        180          1  
      72          5          2        180          1  
      73        0.8          2        180          1  
      74          3          2        180          1  
      75          5          2        180          1  
      76          3          2        180          1  
      77          4          2        180          1  
      78          2          2        180          1  
      79        0.4          2        180          1  
      80          2          2        180          1  
      81          3          2        180          1  
      82        2.8          2        180          1  
      83         10          2        180          1  
      84          4          2        180          1  
      85        0.8          2        180          1  
      86        0.8          2        180          1  
      87        3.1          2        180          1  
      88          3          2        180          1  
      89          3          2        180          1  
      90        3.1          2        180          1  
      91        3.1          2        180          1  
      92       0.24          1        180          1  
      93       0.37          3          0          0  
      94       0.01          3          0          1  
      95       0.28          3          0          1  
      96       0.28          3          0          1  
      97        1.3          1          0          1  
      98        0.3          2          0          0  
      99       0.42          3          0          0  
     100       0.14          3          0          1  
     101       0.05          6        180          1  
     102        1.4          2        180          1  
     103          0          3        180          1  
     104          0          3        180          1  
     105        1.4          2        180          1  
     106       0.19          3          0          1  
     107        0.2          1          0          1  
     108       0.27          2          0          0  
     109          0          3          0          0  
     110          3          2        180          1  
     111          3          2        180          1  
     112          2          2        180          1  
     113       0.19          3          0          1  
     114          0          3          0          1  
     115         14          2        180          1  
     116          1          2        180          1  
     117         14          2        180          1  
     118          3          2        180          1  
     119         14          2        180          1  
     120          1          2        180          1  
     121         14          2        180          1  
     122          3          2        180          1  
     123          3          2        180          1  
     124         14          2        180          1  
     125          3          2        180          1  
     126          1          2        180          1  
     127          1          2        180          1  
     128       0.15          1          0          1  
     129        0.1          3          0          1  
     130       0.16          3          0          1  
     131        3.1          2        180          1  
     132       0.99          2        180          1  
     133        4.2          2        180          1  
     134        1.6          1          0          1  
     135        2.5          2        180          0  
     136        1.8          1          0          1  
     137          0          1          0          1  
     138          0          1          0          1  
     139        1.4          1          0          1  
     140        0.4          1          0          1  
     141       2.75          2        180          1  
     142        0.3          4          0          0  
     143       2.75          2        180          1  
     144        0.3          4          0          0  
     145          0          1          0          1  
     146          0          1          0          1  
     147        0.8          3          0          1  