Created by charmm2lammps v1.8.1 on Thu Mar 31 12:32:29 CDT 2016

1429  atoms
961  bonds
514  angles
64  dihedrals
5  impropers

17  atom types
17  bond types
31  angle types
43  dihedral types
5  improper types

-12.12469     12.12469 xlo xhi
-12.12469     12.12469 ylo yhi
-12.12469     12.12469 zlo zhi

Masses

1      1.008  # HT
2    15.9994  # OT
3    15.9994  # OTH
4      1.008  # HTH
5      1.008  # H
6      1.008  # HB1
7      1.008  # HA2
8      1.008  # HA3
9     12.011  # C
10     12.011  # CT1
11     12.011  # CT2
12     12.011  # CT2A
13     12.011  # CT3
14     12.011  # CC
15     14.007  # NH1
16     15.999  # O
17     15.999  # OC

Pair Coeffs

1          0          0          0          0  # HT
2  0.1554253   3.165492  0.1554253   3.165492  # OT
3  0.0986097   3.118507  0.0986097   3.118507  # OTH
4 4.0583e-05          0 4.0583e-05          0  # HTH
5      0.046  0.4000135      0.046  0.4000135  # H
6      0.022   2.351973      0.022   2.351973  # HB1
7      0.034   2.387609      0.034   2.387609  # HA2
8      0.024   2.387609      0.024   2.387609  # HA3
9       0.11   3.563595       0.11   3.563595  # C
10      0.032   3.563595       0.01   3.385415  # CT1
11      0.056   3.581413       0.01   3.385415  # CT2
12      0.056   3.581413       0.01   3.385415  # CT2A
13      0.078   3.634867       0.01   3.385415  # CT3
14       0.07   3.563595       0.07   3.563595  # CC
15        0.2   3.296325        0.2   2.761786  # NH1
16       0.12   3.029056       0.12   2.494516  # O
17       0.12   3.029056       0.12   3.029056  # OC

Atoms

1 1 9 0.51 1.593 -3.81 0.565 # C
2 1 16 -0.51 1.903 -4.744 1.314 # O
3 1 15 -0.47 2.129 -3.05 0.197 # NH1
4 1 5 0.31 2.034 -2.128 -0.179 # H
5 1 13 -0.11 3.097 -3.297 0.211 # CT3
6 1 8 0.09 3.233 -4.113 -0.351 # HA3
7 1 8 0.09 3.633 -2.537 -0.156 # HA3
8 1 8 0.09 3.372 -3.484 1.154 # HA3
9 1 13 -0.27 -0.64 -6.24 0.898 # CT3
10 1 8 0.09 -1.135 -5.992 1.73 # HA3
11 1 8 0.09 0.073 -6.908 1.111 # HA3
12 1 8 0.09 -1.275 -6.621 0.225 # HA3
13 1 9 0.51 -0.215 -5.42 0.515 # C
14 1 16 -0.51 0.28 -5.668 -0.318 # O
15 1 15 -0.47 -0.432 -4.638 1.099 # NH1
16 1 5 0.31 0.28 -5.214 1.529 # H
17 1 10 0.07 0.185 -3.45 0.545 # CT1
18 1 6 0.09 -0.132 -3.244 -0.428 # HB1
19 1 12 -0.18 -0.003 -2.201 1.505 # CT2A
20 1 7 0.09 -1.091 -2.059 1.654 # HA2
21 1 7 0.09 0.586 -2.487 2.445 # HA2
22 1 11 -0.28 0.673 -0.826 1.124 # CT2
23 1 7 0.09 0.595 -0.183 2.017 # HA2
24 1 7 0.09 1.735 -0.81 0.745 # HA2
25 1 14 0.62 -0.012 0.03 0.003 # CC
26 1 17 -0.76 -0.93 -0.307 -0.7 # OC
27 1 17 -0.76 0.616 1.203 -0.251 # OC
28 2 3 -0.32 9.491 2.147 -7.819 # OTH
29 2 4 0.44 9.094 2.844 -8.458 # HTH
30 2 4 0.44 8.682 1.8 -7.286 # HTH
31 2 4 0.44 0.186 1.638 -1.042 # HTH
32 3 2 -0.82 -2.795 -7.502 -5.435 # OT
33 3 1 0.41 -2.893 -6.668 -4.817 # HT
34 3 1 0.41 -3.079 -7.264 -6.386 # HT
35 4 2 -0.82 6.676 1.993 10.516 # OT
36 4 1 0.41 5.849 1.615 11.063 # HT
37 4 1 0.41 6.524 1.625 9.561 # HT
38 5 2 -0.82 -7.407 -5.704 11.86 # OT
39 5 1 0.41 -7.003 -6.627 12.075 # HT
40 5 1 0.41 -8.131 -5.817 11.102 # HT
41 6 2 -0.82 -8.716 -7.349 -4.168 # OT
42 6 1 0.41 -9.051 -6.707 -4.876 # HT
43 6 1 0.41 -7.937 -6.821 -3.782 # HT
44 7 2 -0.82 -4.228 9.328 -7.491 # OT
45 7 1 0.41 -4.468 8.901 -6.577 # HT
46 7 1 0.41 -4.569 8.697 -8.204 # HT
47 8 2 -0.82 -10.576 -11.207 -4.078 # OT
48 8 1 0.41 -10.587 -11.447 -3.085 # HT
49 8 1 0.41 -11.497 -10.975 -4.529 # HT
50 9 2 -0.82 9.78 11.992 10.634 # OT
51 9 1 0.41 10.76 -11.995 10.822 # HT
52 9 1 0.41 9.202 12.082 11.531 # HT
53 10 2 -0.82 0.546 -5.421 5.015 # OT
54 10 1 0.41 0.815 -5.591 6.004 # HT
55 10 1 0.41 -0.454 -5.162 5.102 # HT
56 11 2 -0.82 2.286 -1.921 -10.102 # OT
57 11 1 0.41 3.266 -2.179 -10.331 # HT
58 11 1 0.41 1.746 -1.804 -10.979 # HT
59 12 2 -0.82 3.924 5.783 -9.709 # OT
60 12 1 0.41 4.941 5.65 -9.587 # HT
61 12 1 0.41 3.429 5.117 -9.096 # HT
62 13 2 -0.82 3.384 8.019 10.875 # OT
63 13 1 0.41 3.112 8.95 10.588 # HT
64 13 1 0.41 3.291 7.512 10.02 # HT
65 14 2 -0.82 5.554 -2.916 -9.68 # OT
66 14 1 0.41 6.247 -2.679 -8.927 # HT
67 14 1 0.41 5.669 -2.179 -10.412 # HT
68 15 2 -0.82 4.153 3.369 0.841 # OT
69 15 1 0.41 4.627 4.142 1.242 # HT
70 15 1 0.41 4.355 2.689 1.567 # HT
71 16 2 -0.82 7.289 8.518 -11.224 # OT
72 16 1 0.41 6.561 9.097 -11.692 # HT
73 16 1 0.41 7.42 8.956 -10.317 # HT
74 17 2 -0.82 3.808 -7.706 -8.489 # OT
75 17 1 0.41 4.196 -6.864 -8.983 # HT
76 17 1 0.41 2.868 -7.367 -8.278 # HT
77 18 2 -0.82 -8.207 11.95 6.587 # OT
78 18 1 0.41 -8.031 -11.729 5.739 # HT
79 18 1 0.41 -8.48 11.074 6.162 # HT
80 19 2 -0.82 5.851 9.684 0.963 # OT
81 19 1 0.41 6.058 10.665 1.206 # HT
82 19 1 0.41 6.767 9.258 0.841 # HT
83 20 2 -0.82 6.072 8.107 3.523 # OT
84 20 1 0.41 6.506 8.548 2.709 # HT
85 20 1 0.41 5.275 8.718 3.883 # HT
86 21 2 -0.82 10.559 0.577 -1.524 # OT
87 21 1 0.41 11.643 0.507 -1.614 # HT
88 21 1 0.41 10.189 0.72 -2.474 # HT
89 22 2 -0.82 -0.182 8.444 8.449 # OT
90 22 1 0.41 0.391 8.953 7.694 # HT
91 22 1 0.41 0.129 7.46 8.497 # HT
92 23 2 -0.82 3.074 -4.863 -11.842 # OT
93 23 1 0.41 3.608 -4.025 12.064 # HT
94 23 1 0.41 2.305 -4.654 -11.158 # HT
95 24 2 -0.82 -1.139 -5.476 -10.946 # OT
96 24 1 0.41 -0.271 -5.637 -10.484 # HT
97 24 1 0.41 -1.612 -4.629 -10.687 # HT
98 25 2 -0.82 -7.472 5.548 5.227 # OT
99 25 1 0.41 -7.698 6.171 4.396 # HT
100 25 1 0.41 -6.909 4.74 4.848 # HT
101 26 2 -0.82 7.337 7.482 -6.672 # OT
102 26 1 0.41 7.432 8.173 -5.88 # HT
103 26 1 0.41 7.678 6.635 -6.178 # HT
104 27 2 -0.82 -8.24 11.862 -9.612 # OT
105 27 1 0.41 -7.274 12.039 -9.215 # HT
106 27 1 0.41 -8.804 11.489 -8.808 # HT
107 28 2 -0.82 1.991 4.093 -8.556 # OT
108 28 1 0.41 1.39 3.573 -9.239 # HT
109 28 1 0.41 1.352 4.279 -7.777 # HT
110 29 2 -0.82 5.402 -0.887 5.974 # OT
111 29 1 0.41 4.533 -0.998 5.472 # HT
112 29 1 0.41 5.952 -1.736 6.022 # HT
113 30 2 -0.82 5.704 4.741 8.853 # OT
114 30 1 0.41 6.596 5.245 8.863 # HT
115 30 1 0.41 5.227 4.659 9.764 # HT
116 31 2 -0.82 9.428 8.552 6.548 # OT
117 31 1 0.41 8.717 9.169 6.947 # HT
118 31 1 0.41 10.311 9.086 6.614 # HT
119 32 2 -0.82 -4.207 4.673 9.815 # OT
120 32 1 0.41 -4.624 3.77 9.985 # HT
121 32 1 0.41 -4.247 5.181 10.694 # HT
122 33 2 -0.82 3.576 7.767 -4.985 # OT
123 33 1 0.41 3.526 8.592 -5.614 # HT
124 33 1 0.41 3.674 8.308 -4.078 # HT
125 34 2 -0.82 10.226 3.844 -5.872 # OT
126 34 1 0.41 10.033 3.307 -6.721 # HT
127 34 1 0.41 11.245 4.004 -5.953 # HT
128 35 2 -0.82 6.447 10.109 -2.133 # OT
129 35 1 0.41 6.054 10.011 -1.186 # HT
130 35 1 0.41 7.297 10.661 -2.066 # HT
131 36 2 -0.82 -2.983 1.536 8.79 # OT
132 36 1 0.41 -2.677 0.93 9.557 # HT
133 36 1 0.41 -2.619 2.499 8.928 # HT
134 37 2 -0.82 9.665 11.199 -8.233 # OT
135 37 1 0.41 10.05 10.262 -8.002 # HT
136 37 1 0.41 9.177 11.599 -7.474 # HT
137 38 2 -0.82 11.751 0.503 7.786 # OT
138 38 1 0.41 -11.807 1.096 8.234 # HT
139 38 1 0.41 11.698 0.907 6.801 # HT
140 39 2 -0.82 -1.972 -3.819 5.291 # OT
141 39 1 0.41 -2.802 -3.176 5.28 # HT
142 39 1 0.41 -1.406 -3.618 6.151 # HT
143 40 2 -0.82 1.979 6.659 -11.466 # OT
144 40 1 0.41 2.547 7.016 11.96 # HT
145 40 1 0.41 2.701 6.368 -10.795 # HT
146 41 2 -0.82 -0.283 2.399 8.0 # OT
147 41 1 0.41 0.366 1.676 8.283 # HT
148 41 1 0.41 -0.865 2.591 8.835 # HT
149 42 2 -0.82 -11.737 0.035 3.27 # OT
150 42 1 0.41 -11.411 -0.23 4.213 # HT
151 42 1 0.41 11.544 0.424 3.207 # HT
152 43 2 -0.82 8.463 -3.088 8.8 # OT
153 43 1 0.41 7.94 -2.898 7.984 # HT
154 43 1 0.41 8.684 -2.206 9.318 # HT
155 44 2 -0.82 11.844 -7.853 -10.083 # OT
156 44 1 0.41 10.864 -8.168 -10.335 # HT
157 44 1 0.41 -12.107 -7.153 -10.746 # HT
158 45 2 -0.82 -8.992 -6.774 9.854 # OT
159 45 1 0.41 -9.124 -7.804 9.802 # HT
160 45 1 0.41 -9.902 -6.226 10.046 # HT
161 46 2 -0.82 -5.967 11.764 -11.558 # OT
162 46 1 0.41 -6.873 11.527 -11.153 # HT
163 46 1 0.41 -5.653 -11.496 -11.41 # HT
164 47 2 -0.82 -7.784 9.512 -5.497 # OT
165 47 1 0.41 -6.866 9.212 -5.049 # HT
166 47 1 0.41 -8.543 9.411 -4.82 # HT
167 48 2 -0.82 2.751 4.669 4.823 # OT
168 48 1 0.41 1.849 4.92 5.232 # HT
169 48 1 0.41 2.689 3.632 4.826 # HT
170 49 2 -0.82 6.02 0.704 -7.879 # OT
171 49 1 0.41 5.45 1.523 -8.076 # HT
172 49 1 0.41 5.709 0.299 -7.007 # HT
173 50 2 -0.82 -0.025 3.551 -10.593 # OT
174 50 1 0.41 -0.858 3.27 -10.076 # HT
175 50 1 0.41 -0.359 4.296 -11.21 # HT
176 51 2 -0.82 -5.178 -4.603 3.412 # OT
177 51 1 0.41 -5.362 -5.237 2.644 # HT
178 51 1 0.41 -4.453 -4.959 4.016 # HT
179 52 2 -0.82 -7.717 -10.736 4.18 # OT
180 52 1 0.41 -8.485 -10.06 4.144 # HT
181 52 1 0.41 -6.85 -10.215 4.371 # HT
182 53 2 -0.82 -2.27 -10.272 8.623 # OT
183 53 1 0.41 -2.162 -11.26 8.9 # HT
184 53 1 0.41 -2.846 -10.355 7.725 # HT
185 54 2 -0.82 -12.048 9.787 -4.072 # OT
186 54 1 0.41 -11.951 9.465 -5.004 # HT
187 54 1 0.41 -11.14 9.768 -3.689 # HT
188 55 2 -0.82 -8.98 -2.696 10.791 # OT
189 55 1 0.41 -8.711 -3.315 9.987 # HT
190 55 1 0.41 -8.582 -2.956 11.664 # HT
191 56 2 -0.82 4.605 2.214 8.079 # OT
192 56 1 0.41 5.286 1.506 7.737 # HT
193 56 1 0.41 5.049 3.07 8.358 # HT
194 57 2 -0.82 1.633 7.057 0.544 # OT
195 57 1 0.41 2.003 6.346 -0.134 # HT
196 57 1 0.41 2.269 7.822 0.407 # HT
197 58 2 -0.82 7.52 3.511 -8.991 # OT
198 58 1 0.41 7.125 4.173 -9.69 # HT
199 58 1 0.41 6.737 3.032 -8.476 # HT
200 59 2 -0.82 -8.433 10.34 0.413 # OT
201 59 1 0.41 -7.839 10.901 1.029 # HT
202 59 1 0.41 -8.0 10.31 -0.518 # HT
203 60 2 -0.82 9.701 3.116 -10.852 # OT
204 60 1 0.41 10.2 3.796 -11.347 # HT
205 60 1 0.41 9.048 3.575 -10.221 # HT
206 61 2 -0.82 -4.369 5.897 5.572 # OT
207 61 1 0.41 -4.813 4.966 5.608 # HT
208 61 1 0.41 -4.097 5.972 4.565 # HT
209 62 2 -0.82 0.444 10.888 -1.803 # OT
210 62 1 0.41 0.173 11.823 -2.091 # HT
211 62 1 0.41 0.851 10.386 -2.636 # HT
212 63 2 -0.82 -3.986 -5.851 5.529 # OT
213 63 1 0.41 -3.246 -5.175 5.626 # HT
214 63 1 0.41 -4.403 -6.343 6.368 # HT
215 64 2 -0.82 -7.708 -4.855 -3.59 # OT
216 64 1 0.41 -7.319 -4.051 -4.068 # HT
217 64 1 0.41 -8.7 -4.752 -3.339 # HT
218 65 2 -0.82 -3.947 -10.608 -12.03 # OT
219 65 1 0.41 -3.95 -9.744 11.664 # HT
220 65 1 0.41 -3.72 -10.42 -11.062 # HT
221 66 2 -0.82 7.951 1.826 -0.253 # OT
222 66 1 0.41 7.201 1.26 -0.6 # HT
223 66 1 0.41 8.809 1.525 -0.68 # HT
224 67 2 -0.82 3.011 5.255 -1.256 # OT
225 67 1 0.41 3.497 4.566 -0.648 # HT
226 67 1 0.41 2.562 4.823 -2.053 # HT
227 68 2 -0.82 -2.297 2.935 -9.303 # OT
228 68 1 0.41 -2.758 3.828 -8.953 # HT
229 68 1 0.41 -2.649 2.732 -10.24 # HT
230 69 2 -0.82 8.331 -5.415 -8.938 # OT
231 69 1 0.41 8.101 -6.335 -8.516 # HT
232 69 1 0.41 7.871 -4.664 -8.423 # HT
233 70 2 -0.82 -9.179 10.248 -7.739 # OT
234 70 1 0.41 -9.286 9.307 -8.097 # HT
235 70 1 0.41 -8.528 10.169 -6.963 # HT
236 71 2 -0.82 6.579 -9.088 5.163 # OT
237 71 1 0.41 5.723 -8.758 4.693 # HT
238 71 1 0.41 7.286 -8.276 5.429 # HT
239 72 2 -0.82 10.612 -8.503 1.214 # OT
240 72 1 0.41 10.969 -7.886 0.447 # HT
241 72 1 0.41 9.744 -8.979 1.037 # HT
242 73 2 -0.82 -4.734 -6.936 -2.593 # OT
243 73 1 0.41 -5.398 -7.279 -3.331 # HT
244 73 1 0.41 -4.283 -6.124 -3.004 # HT
245 74 2 -0.82 3.649 -10.664 5.385 # OT
246 74 1 0.41 4.168 -11.014 6.192 # HT
247 74 1 0.41 4.18 -11.11 4.597 # HT
248 75 2 -0.82 -7.425 -6.634 -8.735 # OT
249 75 1 0.41 -6.922 -5.759 -8.657 # HT
250 75 1 0.41 -8.492 -6.628 -8.86 # HT
251 76 2 -0.82 -11.851 11.791 4.091 # OT
252 76 1 0.41 -11.53 -11.567 3.709 # HT
253 76 1 0.41 12.019 11.207 3.347 # HT
254 77 2 -0.82 7.503 -3.109 -7.724 # OT
255 77 1 0.41 7.983 -2.199 -7.904 # HT
256 77 1 0.41 7.008 -3.116 -6.836 # HT
257 78 2 -0.82 3.044 -8.395 4.495 # OT
258 78 1 0.41 2.082 -8.3 4.193 # HT
259 78 1 0.41 3.21 -9.341 4.901 # HT
260 79 2 -0.82 -6.985 -6.745 5.556 # OT
261 79 1 0.41 -7.959 -6.446 5.711 # HT
262 79 1 0.41 -6.512 -6.102 4.893 # HT
263 80 2 -0.82 -8.288 -4.151 8.494 # OT
264 80 1 0.41 -8.041 -5.121 8.677 # HT
265 80 1 0.41 -8.779 -4.341 7.567 # HT
266 81 2 -0.82 -9.407 -4.762 5.978 # OT
267 81 1 0.41 -9.096 -4.3 5.146 # HT
268 81 1 0.41 -10.152 -5.373 5.802 # HT
269 82 2 -0.82 0.627 -7.923 3.617 # OT
270 82 1 0.41 0.596 -6.943 3.502 # HT
271 82 1 0.41 -0.253 -8.265 4.031 # HT
272 83 2 -0.82 -2.364 -5.767 9.49 # OT
273 83 1 0.41 -3.281 -5.334 9.546 # HT
274 83 1 0.41 -1.666 -5.201 9.991 # HT
275 84 2 -0.82 0.384 -7.773 11.387 # OT
276 84 1 0.41 -0.566 -7.966 11.099 # HT
277 84 1 0.41 0.719 -8.56 11.948 # HT
278 85 2 -0.82 10.238 -2.249 -2.644 # OT
279 85 1 0.41 9.899 -1.439 -2.143 # HT
280 85 1 0.41 9.542 -2.931 -2.358 # HT
281 86 2 -0.82 7.88 6.4 6.324 # OT
282 86 1 0.41 8.46 7.261 6.392 # HT
283 86 1 0.41 6.938 6.639 6.153 # HT
284 87 2 -0.82 9.378 -10.444 3.827 # OT
285 87 1 0.41 8.774 -11.281 3.786 # HT
286 87 1 0.41 9.641 -10.314 4.814 # HT
287 88 2 -0.82 4.901 6.092 -6.709 # OT
288 88 1 0.41 5.785 6.584 -6.784 # HT
289 88 1 0.41 4.344 6.611 -6.037 # HT
290 89 2 -0.82 11.112 -5.675 -8.499 # OT
291 89 1 0.41 11.402 -6.187 -9.365 # HT
292 89 1 0.41 10.09 -5.651 -8.463 # HT
293 90 2 -0.82 9.014 2.566 6.985 # OT
294 90 1 0.41 9.974 2.21 6.886 # HT
295 90 1 0.41 9.055 3.468 7.537 # HT
296 91 2 -0.82 9.237 11.322 -1.871 # OT
297 91 1 0.41 8.965 -12.064 -1.402 # HT
298 91 1 0.41 9.507 11.583 -2.838 # HT
299 92 2 -0.82 9.95 -8.278 10.84 # OT
300 92 1 0.41 9.223 -7.507 10.772 # HT
301 92 1 0.41 9.713 -8.776 11.728 # HT
302 93 2 -0.82 4.873 -7.223 -4.952 # OT
303 93 1 0.41 4.678 -6.295 -5.366 # HT
304 93 1 0.41 4.008 -7.602 -4.472 # HT
305 94 2 -0.82 1.338 10.301 -6.439 # OT
306 94 1 0.41 1.962 9.702 -6.952 # HT
307 94 1 0.41 0.345 10.14 -6.62 # HT
308 95 2 -0.82 -10.887 -1.005 5.67 # OT
309 95 1 0.41 -11.568 -1.627 6.12 # HT
310 95 1 0.41 -10.398 -0.663 6.479 # HT
311 96 2 -0.82 -5.454 7.269 -9.356 # OT
312 96 1 0.41 -5.555 7.081 -10.364 # HT
313 96 1 0.41 -6.256 6.888 -8.806 # HT
314 97 2 -0.82 7.578 -10.143 -5.453 # OT
315 97 1 0.41 8.342 -9.461 -5.362 # HT
316 97 1 0.41 6.824 -9.75 -6.038 # HT
317 98 2 -0.82 -10.974 11.374 8.713 # OT
318 98 1 0.41 -11.257 12.023 9.458 # HT
319 98 1 0.41 -10.235 10.778 9.08 # HT
320 99 2 -0.82 -8.091 8.678 -10.361 # OT
321 99 1 0.41 -7.483 8.344 -11.049 # HT
322 99 1 0.41 -7.819 9.657 -10.115 # HT
323 100 2 -0.82 2.601 -4.043 7.113 # OT
324 100 1 0.41 2.35 -4.888 7.644 # HT
325 100 1 0.41 2.997 -4.235 6.189 # HT
326 101 2 -0.82 1.802 11.363 0.462 # OT
327 101 1 0.41 1.31 -12.074 0.932 # HT
328 101 1 0.41 1.264 11.334 -0.491 # HT
329 102 2 -0.82 11.334 -6.95 -0.971 # OT
330 102 1 0.41 10.55 -6.655 -1.488 # HT
331 102 1 0.41 -12.07 -6.593 -1.482 # HT
332 103 2 -0.82 -1.266 -11.434 12.029 # OT
333 103 1 0.41 -1.205 12.042 -11.582 # HT
334 103 1 0.41 -2.267 -11.192 12.052 # HT
335 104 2 -0.82 -5.29 -1.472 -1.516 # OT
336 104 1 0.41 -4.754 -0.592 -1.286 # HT
337 104 1 0.41 -5.731 -1.79 -0.608 # HT
338 105 2 -0.82 -7.322 6.149 -8.003 # OT
339 105 1 0.41 -7.265 5.167 -7.632 # HT
340 105 1 0.41 -8.334 6.303 -8.274 # HT
341 106 2 -0.82 -0.3 -3.436 7.458 # OT
342 106 1 0.41 0.674 -3.651 7.219 # HT
343 106 1 0.41 -0.438 -3.653 8.469 # HT
344 107 2 -0.82 6.485 -11.079 -11.19 # OT
345 107 1 0.41 6.612 -11.22 12.063 # HT
346 107 1 0.41 5.981 -10.282 -10.864 # HT
347 108 2 -0.82 7.922 -6.276 11.103 # OT
348 108 1 0.41 7.914 -5.429 11.697 # HT
349 108 1 0.41 7.364 -6.151 10.228 # HT
350 109 2 -0.82 -6.302 2.854 -11.071 # OT
351 109 1 0.41 -6.581 3.836 -11.325 # HT
352 109 1 0.41 -6.943 2.415 -10.433 # HT
353 110 2 -0.82 2.82 -1.202 -5.178 # OT
354 110 1 0.41 1.949 -0.927 -5.646 # HT
355 110 1 0.41 3.286 -1.743 -5.904 # HT
356 111 2 -0.82 0.327 -10.423 -4.424 # OT
357 111 1 0.41 -0.274 -10.53 -3.587 # HT
358 111 1 0.41 -0.188 -10.357 -5.281 # HT
359 112 2 -0.82 -6.578 2.057 -1.128 # OT
360 112 1 0.41 -5.87 2.486 -0.525 # HT
361 112 1 0.41 -7.257 2.768 -1.362 # HT
362 113 2 -0.82 -5.809 -9.194 -4.627 # OT
363 113 1 0.41 -6.057 -10.127 -4.921 # HT
364 113 1 0.41 -5.67 -8.501 -5.412 # HT
365 114 2 -0.82 11.785 -2.657 7.107 # OT
366 114 1 0.41 11.261 -3.342 6.589 # HT
367 114 1 0.41 11.775 -2.974 8.087 # HT
368 115 2 -0.82 7.3 6.613 -0.443 # OT
369 115 1 0.41 6.298 6.686 -0.707 # HT
370 115 1 0.41 7.478 7.332 0.271 # HT
371 116 2 -0.82 7.115 -7.352 -10.728 # OT
372 116 1 0.41 7.293 -7.078 -11.681 # HT
373 116 1 0.41 7.295 -6.616 -10.02 # HT
374 117 2 -0.82 -3.578 10.795 -0.113 # OT
375 117 1 0.41 -4.369 10.132 -0.035 # HT
376 117 1 0.41 2.907 -6.528 9.985 # HT
377 118 2 -0.82 1.78 4.35 -3.659 # OT
378 118 1 0.41 1.354 5.261 -3.858 # HT
379 118 1 0.41 2.506 4.148 -4.335 # HT
380 119 2 -0.82 -4.926 -11.816 9.733 # OT
381 119 1 0.41 -4.092 11.98 9.318 # HT
382 119 1 0.41 -4.801 -11.804 10.721 # HT
383 120 2 -0.82 -3.163 -5.124 -3.857 # OT
384 120 1 0.41 -2.165 -4.806 -4.083 # HT
385 120 1 0.41 -3.379 -4.399 -3.177 # HT
386 121 2 -0.82 4.435 11.697 -4.153 # OT
387 121 1 0.41 4.467 11.376 -5.154 # HT
388 121 1 0.41 4.805 10.906 -3.631 # HT
389 122 2 -0.82 0.862 6.197 -6.921 # OT
390 122 1 0.41 0.458 6.172 -5.962 # HT
391 122 1 0.41 1.781 6.561 -6.805 # HT
392 123 2 -0.82 -6.9 1.382 5.72 # OT
393 123 1 0.41 -6.478 1.249 6.683 # HT
394 123 1 0.41 -7.901 1.323 5.9 # HT
395 124 2 -0.82 10.383 -10.32 6.406 # OT
396 124 1 0.41 9.925 -10.435 7.32 # HT
397 124 1 0.41 10.883 -11.2 6.221 # HT
398 125 2 -0.82 2.194 7.718 3.179 # OT
399 125 1 0.41 2.471 6.879 3.663 # HT
400 125 1 0.41 1.95 7.476 2.184 # HT
401 126 2 -0.82 -9.75 6.203 11.49 # OT
402 126 1 0.41 -10.118 7.146 11.276 # HT
403 126 1 0.41 -10.545 5.699 11.807 # HT
404 127 2 -0.82 -10.478 5.382 1.638 # OT
405 127 1 0.41 -11.227 5.508 2.387 # HT
406 127 1 0.41 -11.083 5.037 0.87 # HT
407 128 2 -0.82 11.691 7.677 -2.35 # OT
408 128 1 0.41 11.757 8.29 -3.185 # HT
409 128 1 0.41 -11.694 7.219 -2.145 # HT
410 129 2 -0.82 -0.353 9.686 10.738 # OT
411 129 1 0.41 -0.139 9.136 9.938 # HT
412 129 1 0.41 0.316 10.443 10.821 # HT
413 130 2 -0.82 7.549 -4.22 2.897 # OT
414 130 1 0.41 8.113 -4.941 2.452 # HT
415 130 1 0.41 6.616 -4.615 3.119 # HT
416 131 2 -0.82 -10.045 12.082 -1.694 # OT
417 131 1 0.41 -10.587 -11.47 -1.227 # HT
418 131 1 0.41 -9.756 11.352 -0.967 # HT
419 132 2 -0.82 11.563 6.144 8.329 # OT
420 132 1 0.41 11.314 6.818 9.024 # HT
421 132 1 0.41 11.992 6.676 7.562 # HT
422 133 2 -0.82 4.358 -7.099 6.599 # OT
423 133 1 0.41 3.917 -7.148 7.549 # HT
424 133 1 0.41 3.708 -7.484 5.922 # HT
425 134 2 -0.82 -6.38 -2.52 0.655 # OT
426 134 1 0.41 -6.365 -2.42 1.626 # HT
427 134 1 0.41 -6.481 -3.492 0.325 # HT
428 135 2 -0.82 -8.701 -9.644 -8.09 # OT
429 135 1 0.41 -8.589 -9.73 -7.093 # HT
430 135 1 0.41 -7.817 -9.432 -8.529 # HT
431 136 2 -0.82 -4.409 9.7 10.855 # OT
432 136 1 0.41 -4.838 10.586 11.182 # HT
433 136 1 0.41 -5.107 8.948 10.943 # HT
434 137 2 -0.82 -8.939 -1.387 -3.339 # OT
435 137 1 0.41 -8.576 -1.328 -2.393 # HT
436 137 1 0.41 -9.919 -1.695 -3.46 # HT
437 138 2 -0.82 -7.938 -0.773 2.36 # OT
438 138 1 0.41 -7.647 -0.797 1.385 # HT
439 138 1 0.41 -8.576 0.04 2.488 # HT
440 139 2 -0.82 -4.382 -2.324 5.185 # OT
441 139 1 0.41 -4.974 -1.564 4.96 # HT
442 139 1 0.41 -4.644 -3.048 4.545 # HT
443 140 2 -0.82 6.758 -7.067 -3.091 # OT
444 140 1 0.41 6.431 -7.276 -4.043 # HT
445 140 1 0.41 6.038 -7.569 -2.568 # HT
446 141 2 -0.82 1.013 -6.379 7.724 # OT
447 141 1 0.41 1.34 -6.374 8.743 # HT
448 141 1 0.41 0.166 -6.989 7.661 # HT
449 142 2 -0.82 7.496 11.636 -6.393 # OT
450 142 1 0.41 7.659 -11.684 -5.952 # HT
451 142 1 0.41 7.541 10.891 -5.69 # HT
452 143 2 -0.82 7.144 -1.686 2.072 # OT
453 143 1 0.41 7.379 -2.641 2.276 # HT
454 143 1 0.41 7.963 -1.126 1.968 # HT
455 144 2 -0.82 -1.114 10.024 1.197 # OT
456 144 1 0.41 -0.723 9.269 0.649 # HT
457 144 1 0.41 -1.875 10.529 0.771 # HT
458 145 2 -0.82 -3.065 -2.328 11.153 # OT
459 145 1 0.41 -3.548 -2.871 11.871 # HT
460 145 1 0.41 -2.202 -2.87 10.961 # HT
461 146 2 -0.82 4.799 -5.527 -9.966 # OT
462 146 1 0.41 4.26 -5.583 -10.84 # HT
463 146 1 0.41 5.113 -4.542 -9.834 # HT
464 147 2 -0.82 10.691 -11.922 1.382 # OT
465 147 1 0.41 10.781 11.323 1.441 # HT
466 147 1 0.41 10.108 -11.623 2.19 # HT
467 148 2 -0.82 -7.182 2.718 1.726 # OT
468 148 1 0.41 -6.231 2.327 1.486 # HT
469 148 1 0.41 -7.816 1.99 2.113 # HT
470 149 2 -0.82 -5.335 -9.362 1.99 # OT
471 149 1 0.41 -5.331 -9.177 3.02 # HT
472 149 1 0.41 -6.311 -9.433 1.629 # HT
473 150 2 -0.82 -11.815 4.489 -11.922 # OT
474 150 1 0.41 -12.087 5.237 -11.244 # HT
475 150 1 0.41 -11.655 3.621 -11.4 # HT
476 151 2 -0.82 -2.074 10.059 -2.278 # OT
477 151 1 0.41 -1.054 10.179 -2.03 # HT
478 151 1 0.41 -2.13 9.043 -2.293 # HT
479 152 2 -0.82 -8.475 -3.656 -6.497 # OT
480 152 1 0.41 -9.218 -2.97 -6.342 # HT
481 152 1 0.41 -8.996 -4.539 -6.302 # HT
482 153 2 -0.82 8.646 -7.34 5.562 # OT
483 153 1 0.41 9.366 -7.259 6.219 # HT
484 153 1 0.41 9.028 -7.344 4.606 # HT
485 154 2 -0.82 -8.981 7.507 7.151 # OT
486 154 1 0.41 -8.427 6.77 6.717 # HT
487 154 1 0.41 -9.271 8.108 6.332 # HT
488 155 2 -0.82 8.999 6.232 2.647 # OT
489 155 1 0.41 8.681 5.53 1.958 # HT
490 155 1 0.41 9.341 5.864 3.554 # HT
491 156 2 -0.82 11.446 9.726 2.002 # OT
492 156 1 0.41 11.007 9.243 1.208 # HT
493 156 1 0.41 11.375 9.087 2.835 # HT
494 157 2 -0.82 -11.294 -6.627 5.63 # OT
495 157 1 0.41 -11.902 -7.031 6.306 # HT
496 157 1 0.41 -11.103 -7.475 5.158 # HT
497 158 2 -0.82 11.236 0.4 -6.39 # OT
498 158 1 0.41 10.69 0.844 -7.133 # HT
499 158 1 0.41 11.366 -0.509 -6.668 # HT
500 159 2 -0.82 -0.554 -3.754 10.706 # OT
501 159 1 0.41 0.215 -4.411 10.678 # HT
502 159 1 0.41 -0.102 -2.914 11.031 # HT
503 160 2 -0.82 9.226 6.417 -8.776 # OT
504 160 1 0.41 8.444 6.166 -9.446 # HT
505 160 1 0.41 8.8 6.709 -7.851 # HT
506 161 2 -0.82 6.642 -0.918 -11.451 # OT
507 161 1 0.41 6.015 -0.133 -11.771 # HT
508 161 1 0.41 6.618 -1.696 12.101 # HT
509 162 2 -0.82 -9.003 9.932 9.691 # OT
510 162 1 0.41 -8.37 9.195 9.408 # HT
511 162 1 0.41 -8.424 10.787 9.794 # HT
512 163 2 -0.82 1.243 -1.55 11.449 # OT
513 163 1 0.41 1.988 -1.879 10.839 # HT
514 163 1 0.41 1.086 -0.533 11.308 # HT
515 164 2 -0.82 -0.798 -4.21 -4.041 # OT
516 164 1 0.41 -0.837 -3.288 -3.537 # HT
517 164 1 0.41 0.108 -4.432 -4.387 # HT
518 165 2 -0.82 5.438 5.083 2.698 # OT
519 165 1 0.41 5.991 4.419 3.249 # HT
520 165 1 0.41 5.395 5.999 3.16 # HT
521 166 2 -0.82 -7.706 5.255 -11.453 # OT
522 166 1 0.41 -8.522 5.69 -11.954 # HT
523 166 1 0.41 -8.103 4.87 -10.591 # HT
524 167 2 -0.82 -1.43 6.867 -8.166 # OT
525 167 1 0.41 -0.531 6.68 -7.743 # HT
526 167 1 0.41 -1.177 7.417 -8.959 # HT
527 168 2 -0.82 -7.122 -8.842 11.976 # OT
528 168 1 0.41 -7.868 -9.519 12.056 # HT
529 168 1 0.41 -6.68 -8.9 11.108 # HT
530 169 2 -0.82 -9.005 4.14 -6.405 # OT
531 169 1 0.41 -9.548 3.261 -6.388 # HT
532 169 1 0.41 -9.493 4.836 -5.938 # HT
533 170 2 -0.82 -6.425 10.052 -1.583 # OT
534 170 1 0.41 -5.867 9.351 -0.965 # HT
535 170 1 0.41 -5.932 10.688 -2.27 # HT
536 171 2 -0.82 0.489 -7.379 -5.419 # OT
537 171 1 0.41 -0.454 -7.592 -5.182 # HT
538 171 1 0.41 1.205 -7.755 -4.749 # HT
539 172 2 -0.82 1.399 -5.615 10.249 # OT
540 172 1 0.41 2.021 -5.202 10.999 # HT
541 172 1 0.41 1.029 -6.429 10.761 # HT
542 173 2 -0.82 2.609 -10.826 -2.75 # OT
543 173 1 0.41 3.168 -11.438 -3.324 # HT
544 173 1 0.41 1.782 -10.684 -3.325 # HT
545 174 2 -0.82 2.467 1.741 4.439 # OT
546 174 1 0.41 1.722 1.994 3.704 # HT
547 174 1 0.41 2.068 0.975 5.017 # HT
548 175 2 -0.82 11.743 6.411 -10.054 # OT
549 175 1 0.41 10.807 6.348 -9.601 # HT
550 175 1 0.41 11.76 7.376 -10.379 # HT
551 176 2 -0.82 9.308 -11.814 -10.828 # OT
552 176 1 0.41 9.535 11.904 -9.967 # HT
553 176 1 0.41 8.308 -11.556 -10.72 # HT
554 177 2 -0.82 1.106 -3.198 -7.596 # OT
555 177 1 0.41 0.097 -3.079 -7.528 # HT
556 177 1 0.41 1.348 -3.802 -6.769 # HT
557 178 2 -0.82 9.14 1.032 11.468 # OT
558 178 1 0.41 8.395 1.408 11.005 # HT
559 178 1 0.41 9.232 1.536 -11.92 # HT
560 179 2 -0.82 7.194 9.422 -8.595 # OT
561 179 1 0.41 6.94 8.692 -7.912 # HT
562 179 1 0.41 7.624 10.16 -8.095 # HT
563 180 2 -0.82 -7.573 7.809 -2.507 # OT
564 180 1 0.41 -6.925 7.16 -1.978 # HT
565 180 1 0.41 -7.22 8.767 -2.292 # HT
566 181 2 -0.82 -6.293 3.034 -7.338 # OT
567 181 1 0.41 -6.116 2.023 -7.357 # HT
568 181 1 0.41 -6.655 3.192 -8.239 # HT
569 182 2 -0.82 6.062 -5.938 9.23 # OT
570 182 1 0.41 6.265 -5.55 8.273 # HT
571 182 1 0.41 5.216 -6.53 9.243 # HT
572 183 2 -0.82 -6.119 -7.002 -6.161 # OT
573 183 1 0.41 -6.9 -7.453 -6.592 # HT
574 183 1 0.41 -5.447 -6.887 -6.926 # HT
575 184 2 -0.82 -12.041 -7.969 -6.443 # OT
576 184 1 0.41 -11.234 -7.805 -5.81 # HT
577 184 1 0.41 11.888 -7.157 -6.972 # HT
578 185 2 -0.82 7.765 -7.966 -7.751 # OT
579 185 1 0.41 6.99 -8.447 -7.195 # HT
580 185 1 0.41 8.627 -8.107 -7.21 # HT
581 186 2 -0.82 -10.204 -0.385 -7.983 # OT
582 186 1 0.41 -10.125 0.573 -8.157 # HT
583 186 1 0.41 -9.85 -0.999 -8.731 # HT
584 187 2 -0.82 11.071 9.622 9.526 # OT
585 187 1 0.41 10.356 9.469 10.241 # HT
586 187 1 0.41 11.16 10.65 9.482 # HT
587 188 2 -0.82 5.039 10.689 -6.62 # OT
588 188 1 0.41 5.905 11.213 -6.887 # HT
589 188 1 0.41 4.443 10.621 -7.398 # HT
590 189 2 -0.82 -4.365 4.315 -5.594 # OT
591 189 1 0.41 -4.648 3.855 -4.749 # HT
592 189 1 0.41 -5.143 4.148 -6.253 # HT
593 190 2 -0.82 -7.538 1.913 -4.872 # OT
594 190 1 0.41 -7.112 2.567 -5.55 # HT
595 190 1 0.41 -8.027 1.099 -5.306 # HT
596 191 2 -0.82 -4.98 8.956 -4.637 # OT
597 191 1 0.41 -4.545 8.038 -4.452 # HT
598 191 1 0.41 -4.874 9.65 -3.868 # HT
599 192 2 -0.82 -0.25 7.416 -4.148 # OT
600 192 1 0.41 -0.79 7.956 -4.821 # HT
601 192 1 0.41 -0.919 7.205 -3.362 # HT
602 193 2 -0.82 11.609 1.207 -10.791 # OT
603 193 1 0.41 11.081 0.315 -10.635 # HT
604 193 1 0.41 10.887 1.92 -10.891 # HT
605 194 2 -0.82 -7.825 -11.878 9.334 # OT
606 194 1 0.41 -6.795 -11.973 9.367 # HT
607 194 1 0.41 -8.026 -11.863 8.324 # HT
608 195 2 -0.82 1.559 -5.067 -9.499 # OT
609 195 1 0.41 1.373 -5.861 -8.828 # HT
610 195 1 0.41 1.502 -4.258 -8.866 # HT
611 196 2 -0.82 1.31 2.529 2.264 # OT
612 196 1 0.41 2.268 2.773 1.997 # HT
613 196 1 0.41 0.647 2.588 1.45 # HT
614 197 2 -0.82 10.974 -7.867 7.349 # OT
615 197 1 0.41 11.552 -8.145 8.221 # HT
616 197 1 0.41 10.711 -8.747 6.899 # HT
617 198 2 -0.82 -1.381 -10.407 -2.375 # OT
618 198 1 0.41 -2.362 -10.411 -2.748 # HT
619 198 1 0.41 -1.353 -10.357 -1.318 # HT
620 199 2 -0.82 -2.614 9.843 5.388 # OT
621 199 1 0.41 -1.803 10.384 5.164 # HT
622 199 1 0.41 -2.315 9.277 6.171 # HT
623 200 2 -0.82 -10.536 3.012 8.898 # OT
624 200 1 0.41 -11.028 3.862 8.574 # HT
625 200 1 0.41 -11.054 2.561 9.689 # HT
626 201 2 -0.82 9.334 -1.075 6.385 # OT
627 201 1 0.41 9.376 -0.96 7.427 # HT
628 201 1 0.41 10.158 -1.613 6.087 # HT
629 202 2 -0.82 -1.697 -1.483 -7.66 # OT
630 202 1 0.41 -2.484 -1.326 -8.275 # HT
631 202 1 0.41 -0.923 -1.02 -8.177 # HT
632 203 2 -0.82 -9.488 9.419 5.226 # OT
633 203 1 0.41 -9.553 9.506 4.159 # HT
634 203 1 0.41 -10.473 9.641 5.423 # HT
635 204 2 -0.82 2.743 -8.16 -3.582 # OT
636 204 1 0.41 2.032 -7.714 -3.014 # HT
637 204 1 0.41 2.79 -9.031 -3.079 # HT
638 205 2 -0.82 4.768 -11.797 7.6 # OT
639 205 1 0.41 4.686 -11.026 8.259 # HT
640 205 1 0.41 4.676 11.498 8.041 # HT
641 206 2 -0.82 -3.989 -9.444 -9.495 # OT
642 206 1 0.41 -3.708 -8.749 -10.178 # HT
643 206 1 0.41 -5.04 -9.325 -9.469 # HT
644 207 2 -0.82 -0.661 1.76 5.493 # OT
645 207 1 0.41 -1.313 1.122 5.986 # HT
646 207 1 0.41 0.031 1.937 6.217 # HT
647 208 2 -0.82 -11.198 -1.252 10.331 # OT
648 208 1 0.41 -10.339 -1.663 10.673 # HT
649 208 1 0.41 -11.855 -2.001 9.962 # HT
650 209 2 -0.82 -9.117 -10.532 -11.532 # OT
651 209 1 0.41 -9.193 -11.597 -11.441 # HT
652 209 1 0.41 -9.382 -10.295 -10.581 # HT
653 210 2 -0.82 9.528 -2.925 -5.277 # OT
654 210 1 0.41 10.02 -2.644 -4.387 # HT
655 210 1 0.41 8.644 -2.447 -5.241 # HT
656 211 2 -0.82 -1.313 10.757 -10.462 # OT
657 211 1 0.41 -1.794 10.96 -9.56 # HT
658 211 1 0.41 -1.327 9.722 -10.662 # HT
659 212 2 -0.82 -5.351 -9.167 4.711 # OT
660 212 1 0.41 -5.695 -8.341 5.27 # HT
661 212 1 0.41 -4.876 -9.787 5.361 # HT
662 213 2 -0.82 10.807 8.654 -7.805 # OT
663 213 1 0.41 11.503 8.044 -7.3 # HT
664 213 1 0.41 10.457 7.993 -8.49 # HT
665 214 2 -0.82 9.507 -0.569 9.081 # OT
666 214 1 0.41 9.388 0.037 9.955 # HT
667 214 1 0.41 10.367 -0.147 8.722 # HT
668 215 2 -0.82 -0.477 1.546 -5.304 # OT
669 215 1 0.41 -0.82 2.386 -5.753 # HT
670 215 1 0.41 -1.164 0.815 -5.427 # HT
671 216 2 -0.82 1.178 -0.728 6.276 # OT
672 216 1 0.41 1.799 -0.988 5.544 # HT
673 216 1 0.41 0.277 -0.715 5.855 # HT
674 217 2 -0.82 6.188 -11.915 1.641 # OT
675 217 1 0.41 5.567 -11.099 1.522 # HT
676 217 1 0.41 7.148 -11.501 1.839 # HT
677 218 2 -0.82 -6.077 3.508 4.229 # OT
678 218 1 0.41 -6.418 2.858 4.97 # HT
679 218 1 0.41 -6.535 3.317 3.355 # HT
680 219 2 -0.82 11.255 4.23 -0.266 # OT
681 219 1 0.41 10.387 4.342 0.31 # HT
682 219 1 0.41 11.023 4.438 -1.225 # HT
683 220 2 -0.82 -2.529 8.355 3.28 # OT
684 220 1 0.41 -1.762 8.9 2.741 # HT
685 220 1 0.41 -2.64 8.839 4.181 # HT
686 221 2 -0.82 -6.182 0.481 -8.019 # OT
687 221 1 0.41 -6.717 -0.08 -7.337 # HT
688 221 1 0.41 -5.408 -0.135 -8.285 # HT
689 222 2 -0.82 6.316 -3.814 -3.287 # OT
690 222 1 0.41 6.498 -4.805 -3.152 # HT
691 222 1 0.41 6.481 -3.239 -2.442 # HT
692 223 2 -0.82 -11.752 -2.106 -6.355 # OT
693 223 1 0.41 -11.207 -1.673 -7.095 # HT
694 223 1 0.41 11.649 -2.54 -6.849 # HT
695 224 2 -0.82 6.236 -11.275 10.358 # OT
696 224 1 0.41 5.364 -10.873 10.46 # HT
697 224 1 0.41 6.734 -11.096 9.45 # HT
698 225 2 -0.82 5.093 -8.526 -1.351 # OT
699 225 1 0.41 4.569 -8.993 -0.68 # HT
700 225 1 0.41 5.356 -9.168 -2.094 # HT
701 226 2 -0.82 2.08 -11.348 -7.765 # OT
702 226 1 0.41 1.909 11.935 -8.137 # HT
703 226 1 0.41 2.766 -11.312 -7.032 # HT
704 227 2 -0.82 -0.988 7.063 0.229 # OT
705 227 1 0.41 -1.756 6.838 0.884 # HT
706 227 1 0.41 -0.062 6.883 0.665 # HT
707 228 2 -0.82 -4.916 11.309 -3.208 # OT
708 228 1 0.41 -3.97 11.774 -3.186 # HT
709 228 1 0.41 -5.498 11.675 -4.02 # HT
710 229 2 -0.82 0.815 -7.066 -7.934 # OT
711 229 1 0.41 0.808 -7.32 -6.941 # HT
712 229 1 0.41 0.355 -7.921 -8.264 # HT
713 230 2 -0.82 -11.792 -8.424 9.476 # OT
714 230 1 0.41 11.732 -8.227 10.208 # HT
715 230 1 0.41 -10.998 -9.089 9.68 # HT
716 231 2 -0.82 -7.063 11.41 2.517 # OT
717 231 1 0.41 -6.879 10.775 3.302 # HT
718 231 1 0.41 -7.489 -12.0 2.879 # HT
719 232 2 -0.82 -4.001 -8.524 -0.345 # OT
720 232 1 0.41 -4.595 -8.879 0.432 # HT
721 232 1 0.41 -4.577 -7.833 -0.913 # HT
722 233 2 -0.82 0.279 9.918 3.359 # OT